LAMMPS data file via write_data, version 29 Aug 2024, timestep = 570957, units = metal

13842 atoms
30 atom types

0 101.89012686992 xlo xhi
0 99.26936804718 ylo yhi
-33.335 158.50540883008577 zlo zhi

Masses

1 28.085
2 28.085
3 28.085
4 28.085
5 28.085
6 28.085
7 95.95
8 95.95
9 95.95
10 95.95
11 95.95
12 95.95
13 95.95
14 95.95
15 32.06
16 32.06
17 32.06
18 32.06
19 32.06
20 32.06
21 32.06
22 32.06
23 32.06
24 32.06
25 32.06
26 32.06
27 32.06
28 32.06
29 32.06
30 32.06

Atoms # atomic

2 2 2.0054793308673333 3.1358323671048045 0.37034719111739584 0 1 0
4 2 6.6178587215896885 0.773658698927681 0.8617035170245041 0 0 0
107 2 9.809918811651132 3.430735255592672 1.3940029448229199 0 1 0
8 3 19.289889476972572 1.9419363479562421 0.9954998963752317 0 0 0
11 2 24.04828599632811 1.7889450579232242 0.4739354780753847 0 0 0
10 3 21.665626691748482 2.707903612002558 1.0826965988463408 0 0 0
111 2 25.780491657943728 3.385074128317689 0.9782850830462401 0 0 0
14 2 30.66866977823964 2.5401753914778453 1.4380529907204542 0 0 0
15 2 32.039145106699564 0.40441840241626137 0.72558144777347 0 0 0
16 2 33.487397751409674 2.4155498889993354 1.218559640253358 0 0 0
199 2 1.7616443496154026 7.739294070544777 1.2162959850146708 0 0 0
105 2 4.917993871374176 5.586228980164697 1.4658970437351184 1 1 0
106 2 7.553722849003649 5.543897760591884 1.200928416602505 0 1 0
201 2 8.51896933789122 7.779861618466415 1.4018151567921522 0 1 0
202 2 10.526383797039799 7.962936011674884 0.2102710385891919 0 0 0
108 2 12.850975329350911 4.658586269687348 1.4849426834233632 0 0 0
206 2 15.798116173210088 7.3351668863174 0.11956192783542462 0 0 0
205 2 17.99837988003018 7.586641281146689 1.4227397077884014 0 0 0
110 2 22.102226069768925 5.017067147462181 1.047595023591554 0 0 0
210 2 27.7975467942348 7.924348614409393 1.0635616361797797 0 0 0
113 2 30.505313037574492 4.925380089463425 0.5809687250892992 0 0 0
211 2 30.055554580968693 7.330187461945679 1.503339287988076 0 1 0
212 2 31.719165078263497 8.661097184099189 0.5584151059530937 0 0 0
291 2 6.88174136921766 9.586182480830956 1.0503916996632916 1 0 0
387 2 6.484203196422888 12.035750096726549 1.5260020319565084 0 1 0
389 2 10.802434536175666 13.22360409702934 0.6250401809624901 0 0 0
294 2 16.777038906590747 9.788462804650157 0.6710105884364466 0 1 0
297 2 20.586213807874476 10.650362680556327 1.1499906240853601 0 0 0
299 2 27.248142210629116 10.152435172909613 0.3395081339708275 0 0 0
396 2 28.93055939730034 12.01556565857035 1.252038727460208 0 0 0
483 2 2.82916868140551 15.315821423700282 0.6372876329234805 0 1 0
575 2 2.9353999161211886 17.73742707233992 1.1711492023518546 1 1 0
386 2 4.871038845230851 14.377996634826776 1.5370572203088382 0 0 0
485 2 8.466942547547829 16.19111585995432 1.2726045296774846 0 0 0
388 2 8.54703236877937 13.804667198675507 1.172438332475468 1 0 0
392 2 12.432536718266435 14.764282737242011 -0.2500245525023337 0 0 0
80 2 14.799879572637492 13.878290392845896 -0.1823966717462817 0 0 0
486 2 13.845632365693032 16.17478054253374 1.2999242324863725 0 0 0
79 2 20.398179492200047 14.010738095834474 -0.015601567217121488 0 1 0
488 2 17.59121606164963 17.316104920885095 0.6544249373282126 0 0 0
490 2 22.298775132981973 17.255432234370456 0.8793042384973898 0 0 0
491 2 24.565601094389095 16.404643761993746 1.1111379678346138 0 0 0
395 2 28.777984951097412 14.370521426416593 0.881194428334768 0 0 0
574 2 1.7009062170609723 19.880676657955423 1.1245671705115905 0 0 0
670 2 3.455065212365745 21.729294371252475 0.9063334893894922 0 0 0
576 2 5.178894314121404 18.478488282514185 1.400785617723765 0 0 0
577 2 11.197595604506517 20.551331953394776 0.6902922636037073 0 0 0
582 2 17.180765358306108 19.617574359048366 1.333909434652451 0 0 0
583 2 21.55430606519447 19.586274240675596 1.4224856779437596 0 0 0
677 2 21.29607776027551 22.28928918939175 0.7786304285695834 0 0 0
584 2 25.56357908497575 19.956709349466657 1.45702907433062 0 0 0
586 2 30.002458947471727 19.465564030001886 0.45108324800486777 0 0 0
588 2 32.46137410082796 19.425352182255104 1.3545063316224393 0 0 0
771 2 0.7766685731051737 24.606677421401447 1.2988954808181477 0 0 0
773 2 4.353526157153947 26.066232157894525 1.3071218219559344 1 1 0
774 2 7.889585365972251 25.551192691613412 0.9677231949274249 0 0 0
672 2 8.213005518392642 23.129666997754093 1.252855962393915 0 1 0
673 2 10.673873045765518 22.883793709393448 1.1735298077070402 0 0 0
776 2 11.70030653165307 25.075410311317157 0.628609950657378 0 0 0
777 2 14.054657640597656 25.76380727635555 1.1557738389137675 0 0 0
778 2 17.55025970312588 23.328327581583476 0.5453640114652812 0 0 0
782 2 19.86869433835922 24.255909459629965 0.49339631299082876 0 0 0
783 2 25.01260678917517 23.73742656448934 1.000406571401863 0 0 0
784 2 25.334345980440517 26.034507697032847 0.6081845739553611 0 0 0
787 2 30.235266322979008 25.090739322753624 0.32660755645539663 0 0 0
789 2 32.53217364968393 25.17482403772832 1.211968618342804 0 0 0
873 2 0.9663211493081912 28.14651101995235 1.3378966048388063 0 0 0
958 2 0.7266313619446259 30.316241619273658 0.40005927037258987 0 0 0
75 2 7.336575418040111 31.376139963660755 -0.1729631567956043 0 0 0
876 2 4.3574383589177055 28.806032666688633 0.21129991645672339 0 0 0
877 2 6.508515777669394 27.5342588824866 0.09071816309459843 0 0 0
960 2 4.516907277820684 31.186799303727067 0.005387452418091046 1 1 0
961 2 7.764491333591007 29.37581771491165 0.9852201698286123 0 0 0
879 2 10.049460075364829 28.81561631453908 1.0909565380691033 0 0 0
881 2 15.54913414220208 27.642302787540995 0.5836084252516642 0 0 0
963 2 14.2751453861222 29.661779429542488 0.5197425562107217 0 0 0
884 2 21.20323765524891 28.508137375989083 1.333272292894707 0 0 0
885 2 23.49282742721262 27.5976483982869 1.2749581804845942 0 0 0
965 2 25.42849900166737 29.080857009963058 1.4131245854500487 0 0 0
77 2 30.18146532344807 27.4142946757354 0.06258345293448415 0 0 0
888 2 33.69874209964348 27.22581883976934 0.7766954662267992 0 0 0
959 2 2.530045378016052 31.663041676899358 1.2822720185021579 1 0 0
1151 2 0.7896400556727894 35.94229387652715 1.5397133597507715 0 0 0
1064 2 5.669583228521784 34.859614666323395 1.0281790921547185 0 0 0
1066 2 8.690112465325985 33.09954567039079 0.9286816258611679 0 0 0
1067 2 11.00132367103256 33.38772610540112 0.476974662526318 1 0 0
1070 2 15.268165478813588 31.84254122278232 0.7357198478933019 0 0 0
1158 2 14.51612360621279 35.44274191311921 1.4827958252699411 0 0 0
964 2 20.16090681601192 31.922673197394648 1.0312142734694174 0 0 0
1071 2 17.672029193960217 32.2481514716589 1.0411004622087614 0 0 0
1073 2 21.493605848353596 33.88948601977604 1.1033082736325373 0 0 0
1075 2 23.613854989462336 32.7734630767214 1.0305254947686493 0 0 0
968 2 29.21276211170247 31.8536890808247 0.40465020072844604 0 0 0
1074 2 25.775104247815495 33.74330185801701 1.2371308949286752 0 0 0
1077 2 30.810524102529243 33.61744695856455 0.40929868246013285 0 0 0
1078 2 32.98939970070585 33.08019661180655 1.2094793583258072 0 0 0
1152 2 2.438652679653014 37.62826999781135 0.5379788525400978 1 0 0
1347 2 1.4691392695523697 40.596421017489384 1.1961559360820369 1 0 0
73 2 0.25138350080826205 38.75539940610707 0.2614408741407812 1 0 0
1255 2 5.123847681027767 38.66968893470369 1.015765495222111 1 0 0
1155 2 8.983701444601023 36.79545558199699 1.0401928926639374 0 0 0
1157 2 13.153324895122667 37.12167403719674 0.4286606325231025 0 0 0
1159 2 16.753640263490105 36.224114840741535 1.4825887743990296 1 0 0
1258 2 16.95619615232955 38.58746709528753 1.2288588324311138 0 0 0
1259 2 19.26695233349027 39.13874584814189 1.402696153989016 0 0 0
1262 2 26.939509253981484 38.41592352199654 1.1303196690322055 0 0 0
1264 2 29.354065117460355 39.83303776196239 0.8769338318173815 0 0 0
1265 2 31.653934499490145 40.3196464186057 0.15090125802049043 0 0 0
1266 2 33.03255977102365 38.376580832743954 0.35141754057098573 0 0 0
1348 2 3.85248087699153 40.846615924290994 1.3345420294670292 0 0 0
1447 2 3.3015659413699567 44.76130819454668 0.5587322821515468 1 0 0
1349 2 4.831938751445171 42.784076909422055 0.3340404145823746 0 0 0
1350 2 7.088986014487598 42.40795045994524 1.2561636626854797 0 0 0
1351 2 11.363791955806978 40.699021363037076 1.3662137210597673 0 0 0
1451 2 12.199797494091714 44.875343071976936 0.22191977906277174 0 0 0
1353 2 15.758759435790385 40.765509461777214 0.6369191384057572 0 0 0
1452 2 15.511096435756976 44.27407736684992 0.7424599957871892 0 0 0
1356 2 17.484696429278593 42.861678377738095 0.7079539790347934 0 0 0
1359 2 24.472181586841284 41.10407527454224 1.351643182316313 0 0 0
1360 2 25.21283763022969 43.240251453358155 0.7177128027800634 0 0 0
1362 2 27.578276122675025 43.37774921914143 0.9282258403718544 0 0 0
1460 2 32.13800379147143 44.21633875459285 1.4617369759601893 0 0 0
1528 2 1.7875503783357836 46.80322354874376 0.14248673218922955 1 0 0
1532 2 10.317225626793277 49.54178295663798 0.4697385977096361 0 0 0
1455 2 20.73222328822965 45.44954519851168 0.47235249484174185 0 0 0
1536 2 19.25054919277377 47.42485407011461 0.48045400553026074 0 0 0
1538 2 24.246582355326765 47.334334750974485 1.1418780814075125 0 0 0
1540 2 29.198446875651697 48.257377038349354 1.2631153129479373 0 0 0
1541 2 26.892970973750725 48.51129780713916 0.6997331403869097 0 0 0
1461 2 33.92283153494416 45.41639847037279 0.49754668722567713 0 0 0
1 3 2.255731882705042 0.9828765260071542 3.8313932628389256 0 0 0
101 3 0.9615098297914676 2.4672501086211787 2.4883533972869194 0 1 0
6053 3 3.8325966900768584 2.8352250618317223 4.467025668019127 1 1 0
6055 1 0.6725233618691304 0.7396180086065003 5.813983792463265 1 0 0
6009 3 2.107656738669086 4.578494510842032 3.9323487364580743 0 0 0
3 3 7.442521681751217 2.748419021117946 2.166984881661737 0 0 0
6006 3 5.593644362513538 4.014043473856797 3.193514255920541 0 0 0
6052 3 7.876699565196038 1.8107412300780257 4.243515423307573 1 1 0
6054 1 5.2443711630473455 1.0952674118568846 5.63371964038037 0 1 0
5 2 11.139508017943543 1.270187857677326 1.5793284651508517 0 1 0
6002 3 11.60880737124759 2.6224150754712836 5.055263984402115 0 0 0
6051 3 10.06999312690016 1.1456511495601236 3.767035339130848 0 1 0
6003 3 11.137112288817674 4.328216160567863 3.306104171246544 0 1 0
6 2 13.442951033868734 1.443934931247643 2.282189288479063 0 0 0
109 2 14.790736185506919 3.3598580258034914 2.1550238142633944 0 0 0
6050 3 13.203573380874609 0.8645742014943886 4.5888608431345 0 0 0
6049 3 16.535518548543628 0.23246844907562467 2.7842723625879624 0 1 0
4487 1 15.705266511671054 0.40512147301390866 5.0177851960116415 0 1 0
5999 1 16.867518972242042 3.925752460965239 5.298445305080964 0 0 0
6001 1 13.21290084170046 4.444297536247836 5.775405126917824 1 1 0
7 3 17.283543020482536 2.4437193708578966 2.303011095102667 0 1 0
5998 3 18.770367680237804 3.4022891512661833 3.8511932752716977 0 0 0
6047 1 20.378901201972578 1.577650062650464 4.260475134142299 0 0 0
5996 3 23.89439016738789 3.480544744877968 3.7046121619354473 0 0 0
4486 1 22.54770974701607 1.6108879147378814 3.2001269247214794 0 1 0
5997 1 22.622528184330804 4.422510715870132 5.423505172014124 0 1 0
4464 1 23.129899476194467 0.5542794099984646 5.765580149701724 0 1 0
12 3 26.97220005206206 2.068856884395043 2.623196602471031 0 0 0
13 3 29.25476911464853 2.5627010753586617 3.2640850680599645 0 0 0
6045 3 25.80800386505496 2.668361501462522 4.668615500896422 0 0 0
6044 1 30.411659877327118 1.4639935614726016 5.174620191150188 0 0 0
115 3 33.091141973179084 3.9239187754660274 3.082185581512226 0 0 0
6042 1 32.52446263154125 2.8491178639648442 5.289813900421501 0 0 0
104 2 2.077463959200482 5.1628547620302925 1.6066030252152035 1 0 0
200 2 3.9334654645013685 7.711007690377086 2.277470766931372 1 1 0
5960 3 3.596279287112673 6.4505282604065775 4.337165159342553 0 0 0
5961 1 2.872000935157217 8.587599936055641 5.42595489935492 1 1 0
5962 1 0.502247635303298 7.8754414564057225 5.502151754243272 0 0 0
6008 1 0.2768560526500138 5.5563906993528995 5.146486086725583 1 0 0
5959 1 7.406557872787324 7.674946938652035 4.8939922076627385 0 0 0
6007 1 5.892473126281592 5.667672031805429 5.006074493972036 0 0 0
6005 3 8.793881757173413 5.401827621473893 3.514455948910628 0 0 0
203 3 12.105315543524043 8.241234219526971 1.9403330479789673 0 0 0
5957 3 11.60345401757241 6.25857995374375 4.76070887334629 0 0 0
5958 3 10.100149925442395 7.756977124101419 3.404547338222453 0 0 0
6000 3 14.977044578361616 4.691363242646933 4.1849480056314645 0 0 0
204 2 13.966238522539886 6.779828867630064 1.5758450075180903 1 1 0
5955 3 15.118289425639935 7.01935025508537 3.6288356986461183 0 1 0
5956 3 13.233100379757534 8.242962291728773 4.852890816995278 0 1 0
207 2 20.483320012672372 6.81355742961188 1.701073021589611 0 0 0
5952 3 19.426228664721698 5.771049818665238 3.689140102350234 0 0 0
5954 3 17.538440994355827 7.304534507056901 3.72794062662188 0 0 0
5951 3 20.694445026663495 8.952629771562597 4.388222737244785 0 0 0
5950 1 21.240207668901512 6.5303159892644125 5.146158189312769 0 0 0
112 2 24.351525793800818 5.058010357464092 2.029829575310532 0 0 0
208 2 23.76191342953612 8.741518105918937 1.6929550900057755 0 0 0
209 3 24.783680185280353 7.113108226785793 3.0711900623806287 0 0 0
296 3 21.525740185645063 8.776272270962675 2.216760411705109 0 1 0
5949 1 23.63220063028316 7.44287300868442 5.105316630499097 0 0 0
5947 3 28.244796230601484 6.736597001306153 4.933789963085796 0 0 0
5948 3 26.926833308167854 7.985615956190591 3.267148313047595 0 0 0
5995 1 26.501811193703233 4.808398385315906 5.524879189840114 0 0 0
5994 3 29.393938690966703 4.631859829116202 4.543835156112752 0 1 0
114 3 31.122290926995404 5.300805585587369 3.0607495883319222 0 0 0
5945 3 32.080222899707046 7.2403121951284115 4.469985766682963 0 0 0
5946 3 29.929487072140976 8.26124354696546 3.888480714472926 0 0 0
290 2 4.058607865276468 11.690678429819705 2.4969445364499334 0 1 0
384 3 1.7276343552647817 11.771003326159333 2.0345004655829895 1 0 0
5909 3 0.5603413348918396 11.834806702246441 4.186047761444818 0 0 0
330 3 0.388141291573947 9.633518343086594 2.016168588791507 1 0 0
5908 1 2.1469993781155927 10.878013849129543 5.746769479484802 0 0 0
5907 3 4.380970699924471 9.736627863197084 3.6421978374534456 0 0 0
5905 3 6.611013875856272 9.266005314128332 3.3151456956768928 1 1 0
5862 3 7.9363616000127575 13.146167018193102 3.506086117731626 0 0 0
5904 3 7.829228742397324 11.013140096739454 4.325406221659562 0 0 0
5906 1 4.479538427696623 11.832937337997093 5.682674349249646 0 0 0
390 3 11.86132751638718 12.780103715012919 2.5684009558621432 1 0 0
5901 3 12.186229744091422 10.465716130153197 4.578568568613063 0 0 0
5902 1 9.845835966809389 9.614124678797312 4.929745328062285 0 1 0
292 2 12.714048343431626 10.505617633616833 2.2178892190725548 0 0 0
5860 3 10.226201962252587 13.681801159923443 4.014045382823143 0 0 0
293 3 15.131359661422259 10.621562276613174 2.323010834145395 0 0 0
393 3 15.601404546072702 12.902870380315925 1.9592172087649988 0 0 0
5899 3 15.57182717481526 9.67567893080053 4.586661820525249 0 0 0
5900 1 14.348357869079216 11.477987707580894 5.834170826797759 0 0 0
5859 3 14.93619236879283 13.494158863653778 4.897880781062467 1 1 0
295 2 18.418484836673386 11.044738552980462 1.9720139079200731 0 0 0
5898 3 18.39494570467407 9.650366130194502 4.000509723292475 0 0 0
5858 3 17.355442953327056 13.448217743971707 4.862006159708792 0 0 0
5897 1 17.772998308367267 11.331903974815024 5.638875964650259 0 0 0
394 3 17.90046699724398 13.480441984947902 2.4732179768288365 0 0 0
298 2 24.756477063990594 10.92537196914393 1.660186784570403 0 0 0
5855 3 24.131510324276277 12.597170604494302 5.010085308035058 0 0 0
5856 3 22.561537648096536 11.788943679126147 2.415799889545263 0 0 0
5896 3 22.130131667796324 10.893151318622236 4.739767314560869 0 0 0
300 3 26.860082862191987 11.766880644708424 2.5936780477327464 0 0 0
5892 3 27.32772672483144 10.210364357554344 4.215921195774216 0 0 0
5891 3 29.789798830775773 10.637549471383556 4.5714180240245845 0 0 0
301 3 32.529338878006875 10.129608501212584 2.2160287687534015 0 1 0
397 3 30.807461071545696 11.766566258614873 2.674277957440063 0 0 0
5889 3 33.15024594458963 9.227131404973424 4.306924264568085 0 0 0
5890 1 31.66690406302053 10.400299609910633 5.965775231816948 0 0 0
5819 1 0.8027486099680098 13.902189213119465 5.427353569159354 0 1 0
385 2 1.0836364804400407 14.12494867085926 1.7974372703364299 1 1 0
5816 1 3.256169057310031 15.328616313065824 5.195015688384449 1 1 0
5817 3 1.0438561908644803 15.726127877020609 3.65825849961402 0 0 0
5818 3 2.375698804352564 17.78024560107862 3.4829107288175316 0 1 0
5815 3 4.33080328785737 17.778779349654037 4.859933961991369 1 0 0
5863 3 4.580504122297684 13.669688596669019 4.037322002553194 0 0 0
484 2 6.17348819890165 16.3677720627532 1.7685013397757878 1 0 0
5814 3 6.250201877522559 16.71439434695723 4.027128362698762 0 0 0
5861 3 6.573073989277675 14.554040115764954 4.805969323318429 1 0 0
579 3 9.799357491589824 17.41597375559396 3.0043743501991362 0 0 0
5813 3 10.667986367389485 15.942565184636482 4.652846293508514 0 0 0
391 3 13.717879334616228 14.234488233594066 2.886789098323449 0 0 0
5812 3 12.96128457330535 16.17711191306111 4.418998318500531 0 0 0
487 3 18.53941179101926 15.743512068594521 2.1387468504043206 0 0 0
489 3 20.898139692565902 15.497574387020249 1.772679261883954 1 0 0
5808 1 19.900140740773978 16.659592567790547 5.350034480031059 0 0 0
5809 3 18.06856936036845 17.218367009956484 3.9375412630235904 0 0 0
5806 3 21.426517306251185 17.541355182948536 3.6597296339986185 0 0 0
492 3 24.31753325465728 15.352725719233662 3.16300545990702 0 0 0
5805 3 23.85312213421795 17.261040169915965 4.614934024365316 0 1 0
5807 1 21.676360765776437 14.881228397960289 5.472496606206955 0 0 0
5857 3 22.315117756138502 14.173647062646497 3.1493112267173027 0 0 0
5854 3 26.113315228933363 13.752596202764762 3.56036290256274 0 1 0
493 3 27.53548162806544 15.461482944270537 2.6216966638247126 0 0 0
494 2 26.484832520664337 17.679502599065344 2.0340175531394773 0 0 0
5804 3 28.505114943520653 15.818938075558982 4.758997556816506 0 0 0
5766 3 26.085706382543037 18.14807018086094 4.442016277386922 0 1 0
399 3 32.20291816806369 13.661658031871193 3.199624884223777 0 1 0
495 2 32.42732044012878 15.48487492674184 1.6736262670481732 0 0 0
587 3 31.970385680749374 17.47245888580585 2.6624839812010155 0 1 0
5852 1 32.12280161522442 14.372857327196618 5.339502696910441 0 0 0
1318 1 21.423328256332468 49.13449339521891 11.208441224401415 0 0 0
5727 3 1.1909967562885762 22.19912661059148 4.673388550174603 0 0 0
5775 3 1.2894420849769963 20.02258665652323 3.6004300644717344 0 0 0
5772 3 8.118093784717898 18.219236578915343 4.403063311275153 0 0 0
671 2 5.780628210143763 21.65883978379054 1.7023594880683612 0 0 0
5726 1 4.999247216747924 20.420091933229816 5.568759778896609 0 0 0
5773 3 6.025630926566638 19.749708663327684 3.3031869984122997 0 0 0
5677 1 4.518029668784991 22.68732850251141 5.807490067577386 1 0 0
5724 3 8.42690143342577 20.81213843867568 4.060632757019487 0 0 0
578 3 11.410139116269518 19.13731097080711 2.6205253212834667 0 0 0
5723 3 10.908426388350582 20.761218691044544 4.252719852796687 0 0 0
580 3 13.600927071993349 18.234585654092232 2.862562657251006 0 0 0
581 2 14.852133566629787 20.12802072276477 1.9586152022411474 0 0 0
674 3 14.23372226377806 22.203471711435633 2.922564316423552 0 0 0
5720 1 15.15019100150649 21.858845710092243 5.145704640486449 1 0 0
5771 3 15.136453323045114 18.46106131818118 4.769282772764405 0 1 0
5770 3 17.144452254017615 19.5228012167756 3.766361832845739 0 0 0
675 2 19.08526899597215 21.28014182822874 1.6660674074511692 0 0 0
5719 3 17.464525606900303 21.63106640343248 4.693958180043428 0 0 0
5769 3 19.92809579701065 19.53026972833274 3.4455207128810983 0 0 0
5767 1 20.324802810858316 20.269507468159215 5.652689935131321 0 0 0
678 3 23.436027937896434 20.59735941769027 2.4564061467719145 0 0 0
5768 3 23.31793134287388 19.700293099142296 4.57988975260297 0 0 0
5717 3 24.583126940415287 22.659939974553293 4.512421837221129 0 0 0
5718 3 25.709470339495418 20.53983671686236 5.073464599317685 0 0 0
585 3 28.631463048007692 18.93992732273924 2.4751820516795426 0 0 0
680 3 27.042509142668223 20.96433548118839 3.1072221251812864 0 0 0
5716 3 29.316229675645506 21.524946736579615 3.7044305155241974 0 0 0
5763 3 30.045944341952815 17.791363712070655 4.181592707347208 0 0 0
5762 1 29.75794505315426 20.07238491738513 5.564723326014653 0 0 0
681 2 30.94826292190783 21.460154289709962 1.9581777767435162 0 0 0
5714 1 32.309608886487815 22.36760926954371 5.814228635285217 0 0 0
772 2 3.1310599812281015 23.977946114852333 1.7718815179262386 0 0 0
5680 3 0.6215208038134489 25.590525838633944 3.4710920864587105 0 0 0
5681 3 2.5446046125315807 23.99267317154633 4.135935039780883 0 0 0
775 3 6.123503321024682 25.696645493708164 2.8053133752221604 0 0 0
5678 3 5.385730792730199 23.451050688569172 3.4879507983208704 1 0 0
5725 3 7.923038000187102 23.119295004869144 3.683196016335038 0 0 0
5632 3 8.328358458635163 26.538706307227784 3.789481006191564 1 0 0
5722 3 11.893705606696866 22.66588380957714 3.2428758143980976 0 0 0
878 2 10.061027787500274 26.54251758765858 1.70268042230996 0 0 0
5630 3 11.333513827997894 26.500255581599593 3.89933292590744 0 0 0
5675 3 11.088686555523045 24.40557166395976 4.776496003156602 0 0 0
5676 3 8.801963399512884 24.77143744310196 5.330551264033049 0 0 0
779 2 15.579634892084774 24.08702582079814 1.9303402371317435 1 0 0
5628 3 14.939340247193211 26.01201667160451 4.9253891453327014 0 0 0
5674 3 16.694518027211124 25.656376005950467 3.4397273201200407 0 0 0
880 3 13.46691694736664 26.82965254478016 3.1336390666169436 0 0 0
780 3 18.214465313112157 23.18734357406127 3.1291611749009682 0 0 0
781 3 20.003495307879362 25.07176552016996 2.707780561284012 0 0 0
5672 1 18.490790241439488 25.295285553485304 5.222194875451926 0 0 0
679 3 23.026095149965272 23.099749691373244 2.2113059698261384 0 1 0
5671 3 22.20180074291999 24.8551337463172 3.625071390044255 0 0 0
5625 3 23.35851522605326 26.84350629423096 3.4686809936848504 0 0 0
5670 1 22.109824702372663 23.907297521322395 5.838164256469286 0 0 0
5624 3 25.61864085982811 26.71618440983023 4.42817639821203 0 0 0
785 3 26.823202968733696 23.32319713266365 2.440954085000403 0 0 0
786 3 28.438786193932142 25.08513286214457 1.922047503241986 0 0 0
5669 3 26.423166788952074 24.383705977679618 4.612259917998725 0 0 0
5666 3 29.635971659477402 24.04028473327084 3.8135666631195133 0 0 0
5621 3 32.91922629254581 26.186190781497857 5.025132050081926 0 0 0
5667 3 31.463238734234885 25.862603781605642 3.294446576602106 0 0 0
5715 3 32.07864705693309 23.035399601838197 3.5711160887937634 0 0 0
1445 1 25.19156724409267 45.40645505348227 10.969744648706286 0 0 0
875 3 3.4854708707289728 28.14906214288724 2.5560777157161665 0 0 0
5590 3 3.3269885906250916 30.509659906780026 3.117613136673475 1 0 0
5636 3 1.5040961863583824 27.95766769102132 3.9970124945538457 0 0 0
5591 1 1.7606619138265907 31.050962562404276 4.693736224152505 0 0 0
5635 1 2.7513150936837074 27.64194525229673 5.931984679408351 0 0 0
5588 3 7.2102625555985576 29.931018416665648 3.1726623113300723 0 1 0
5634 3 5.682292214582195 28.058005900176177 3.744417572917854 0 0 0
5589 3 5.238362135958475 31.446592794050137 3.8428243525794956 0 0 0
5587 3 10.860362350448616 29.612947508134614 3.1845588704048877 0 0 0
5631 3 8.86890555153772 28.820969162320573 4.462469286289226 0 0 0
5629 1 11.702832473670085 28.39600958227613 5.523941735654896 1 0 0
962 3 13.205059984812207 29.085139022995516 2.660319279982083 0 0 0
5584 3 14.22159472991785 30.050080173890358 4.455876514761033 0 0 0
5583 3 16.501792710552632 29.40340660417139 3.7401902211943043 0 0 0
882 3 17.175480687970126 27.68086135976668 2.353633799127688 0 0 0
883 3 19.597066592663353 27.38835271179192 2.721655192670266 0 0 0
5582 3 19.350086960923864 31.250499839024542 4.541677390962253 1 0 0
5627 1 19.445293754305915 27.473686074080618 5.149276214965779 1 0 0
4062 1 18.0074961704605 29.25389518672689 5.558526523214461 0 0 0
5581 3 20.971394658449857 30.515516605897737 2.765397084407353 0 0 0
966 3 25.16787593909732 30.550273466433918 3.2819174530764825 1 0 0
5579 3 25.03425504341947 29.059369167565166 5.219616024398506 0 1 0
5626 3 22.59001276604176 29.04445925378105 4.4749075627136 0 0 0
886 3 26.90633960102731 27.05397553920551 2.391684488678838 0 0 0
967 3 28.872742866718745 30.944712143815224 2.5058775392848363 0 0 0
5622 1 28.868172517580756 28.626093294773327 5.31457228767929 0 0 0
5623 3 28.66848907664379 28.619314226711893 2.941032341123524 0 0 0
887 3 30.85804080117701 27.86545308182065 2.2416669619229954 0 0 0
889 3 33.04065641472563 29.123008619623253 2.5457668096785646 0 0 0
5620 3 33.486053552952605 28.387153675509957 4.773189979332467 0 0 0
969 3 32.62861206660906 31.44665070879254 3.0812040137205425 0 0 0
5577 3 30.580758407992437 31.651513372040515 4.038489511806558 0 0 0
1061 3 2.2103705882039697 33.89640122019206 1.9959567360175854 0 0 0
5500 1 1.5627337689775933 35.073709828837664 5.2327025330338826 0 0 0
5543 3 0.9174552858913054 33.2338861368128 3.984712591896949 1 0 0
1062 3 4.125057392147806 35.05469234282432 2.8226883762922568 0 0 0
1063 2 5.79244095583897 32.510077274072344 1.6691685075765135 1 0 0
5540 3 7.494064519725195 34.31104249891798 4.616079609913765 0 0 0
5542 3 5.12902837316077 33.85077184352103 4.617639783444714 0 0 0
5541 3 8.284873904420015 32.34320180567586 3.2669752090506807 0 0 0
1068 3 11.892974282845687 33.41911853484247 2.6773725137738906 0 0 0
5496 3 11.6416185847988 35.361010240298434 3.887178671742703 0 0 0
5586 3 10.602272251017668 31.84387432254639 3.5826351149423497 0 0 0
3971 1 11.120870281129589 32.18819400330299 5.816316104078747 0 0 0
1069 3 14.227553988269639 33.218397267344265 2.3013316287573304 0 0 0
5538 3 15.349910655618164 35.0054790575024 4.935566517281619 0 0 0
5539 3 15.280836633286308 32.45218823977777 4.41700790648495 1 0 0
1072 3 17.21733412123059 31.551936907864224 3.244890153170666 0 0 0
5537 3 18.365988342393578 34.45065268267269 2.100353260548938 0 0 0
1161 3 20.582694928976746 35.28354952486394 2.8523808739531464 0 0 0
5536 1 18.128375935167636 33.78339435631756 4.609042479225686 0 0 0
3918 1 19.811514397575237 35.221904461288055 5.9131496089271 0 0 0
5534 1 20.71964095005206 32.611254173560624 6.088511391235003 0 0 0
5580 1 22.851110060855834 31.6514569654863 5.746571385210416 0 0 0
5535 3 23.070258001114205 31.71981779718853 3.131183173672183 0 0 0
1163 3 24.959371364013812 35.36894295538542 2.647773099259834 0 0 0
5533 3 23.048495845162655 34.28673216846786 3.678724215824361 0 0 0
5492 1 21.939574370335727 35.92800280678984 5.244543282964126 1 0 0
1076 3 26.88738300568006 32.1541610414203 2.6623389782995375 0 0 0
5491 3 26.955263352852334 35.581261997782825 3.773823449485994 0 0 0
5531 3 27.73874193348822 33.37511534299457 4.413166453763525 0 0 0
5530 3 29.978822768811664 33.946514043707936 4.244678609726387 0 0 0
1165 3 30.34362472502981 35.08750153394477 2.1296709810457743 0 0 0
1166 3 33.32319436284546 35.15841683411262 2.736248075235051 0 0 0
1408 1 12.623099786350874 47.38397346313313 11.1708116430348 0 0 0
1153 3 3.6230218694969785 37.451333977910195 2.7309284357762817 0 0 0
5456 3 3.620750689307671 39.07060904306744 4.592729505786613 0 0 0
5458 3 0.38709119273576625 38.83009625203997 4.471375123282901 0 0 0
5499 3 1.4847064032200428 36.885447840012986 3.67589810098961 0 0 0
1154 2 6.72188883079124 36.89144887831113 1.782705317285646 0 0 0
1256 2 6.93267107077762 40.180295242819696 2.074545775155244 0 0 0
5498 3 6.745713037751084 36.6189976382705 4.266749100082204 0 0 0
5457 1 5.255744415572449 37.89774880676135 5.848763259462355 1 0 0
5455 3 8.41921821113978 40.09899147949664 3.9299405878379368 0 0 0
5454 3 8.692493056379273 37.82757799436531 4.639772548969416 0 0 0
1156 3 10.28617468555031 37.09609144047904 3.0096598354899493 1 0 0
1257 3 12.054268592017362 38.479858656742245 2.0489065013728207 0 0 0
5453 1 12.241343660100906 40.2435923316926 5.078987140904228 0 0 0
5495 3 13.75069792782525 36.14876740136976 3.6473174434026583 0 0 0
5451 3 15.920502797323122 38.938253882915234 3.590175667032473 0 0 0
5452 3 13.540964484317401 38.51908110052829 3.9258497170689624 0 0 0
5493 3 16.99441614684466 36.43413688720844 3.965693003555538 0 0 0
1160 2 20.910527893502252 37.393711927072836 1.7984887349937964 0 0 0
5449 1 20.058436505240444 39.28698817757 5.18505828583724 0 0 0
5450 3 18.7729789808254 37.24947279031862 5.343243696616148 0 0 0
1162 2 24.705237377116372 37.57733454768537 2.004783941560523 0 0 0
1260 3 22.65642909276386 38.54181685330866 2.7308881567999572 0 0 0
5448 1 22.177015351374695 38.326813700737894 5.008042064966682 0 0 0
5447 3 25.369407037976302 38.385675498682396 4.23909840312371 0 0 0
1164 2 28.30494956465102 36.454866183751754 1.9865442244130582 0 0 0
1261 3 26.22304986610641 40.32905535136163 2.639617144711913 0 0 0
5445 3 29.03507816579765 38.52493255727541 5.010266212289853 0 0 0
5490 1 27.13359431626093 37.23439003400767 5.51407795418475 0 0 0
5446 1 28.337425508450888 40.45732327968809 6.004291132429881 0 0 0
1263 3 29.708784236596163 38.33705407216011 2.659414081251782 0 0 0
1167 3 31.848803695780912 37.08803712374024 2.0489586634717325 0 0 0
5444 3 32.45479995732119 38.437651046157306 4.11687121305674 0 0 0
5488 1 30.931039260862082 37.56056916567876 5.68727872340054 0 0 0
1448 3 3.359481610834135 44.705918657093285 2.8441626797211987 1 0 0
5412 3 3.3144946097901054 42.63200464019912 3.929980059279906 0 0 0
5414 3 1.028454492816182 42.15338055527596 4.6672671085343795 1 0 0
1525 1 0.07874883919884364 40.36915602946389 10.051781485558035 0 0 0
5362 3 6.557810784509309 44.06619701545558 4.812176367777901 0 0 0
5411 3 6.961504739093956 41.56370530420588 5.231059046888212 0 0 0
5413 3 4.958340517484877 40.766958491145076 3.7240848718513506 0 0 0