 # "Mo1 S2"
  
          12  atoms
  12  atom types
 
      0.000000000000       6.368132929370  xlo xhi
      0.000000000000       5.514964891510  ylo yhi
      0.000000000000      18.127112646352  zlo zhi
 
Masses
 
1 95.96  #Mo
2 95.96  #Mo
3 95.96  #Mo
4 95.96  #Mo
5 32.06  #S
6 32.06  #S
7 32.06  #S
8 32.06  #S
9 32.06  #S
10 32.06  #S
11 32.06  #S
12 32.06  #S
 
Atoms # atomic
 
1  1  0.000000000000  0.000000000000  9.063556323176
4  2  1.592033232343  2.757482445755  9.063556323176
7  3  3.184066464685  0.000000000000  9.063556323176
10  4  4.776099697028  2.757482445755  9.063556323176
2  5  1.592033232342  0.919160815252  10.627112646352
3  6  1.592033232342  0.919160815252  7.500000000000
5  7  0.000000000000  3.676643261007  10.627112646352
6  8  0.000000000000  3.676643261007  7.500000000000
8  9  4.776099697027  0.919160815252  10.627112646352
9  10  4.776099697027  0.919160815252  7.500000000000
11  11  3.184066464685  3.676643261007  10.627112646352
12  12  3.184066464685  3.676643261007  7.500000000000
