ITEM: TIMESTEP
0
ITEM: NUMBER OF ATOMS
3456
ITEM: BOX BOUNDS pp pp pp
0.0000000000000000e+00 1.0189012686992000e+02
0.0000000000000000e+00 9.9269368047179995e+01
0.0000000000000000e+00 1.8127112646352000e+01
ITEM: ATOMS id type xs ys zs
1 1 0.5 0.5 0.0862551
2 5 0.515625 0.509259 0.17251
3 6 0.515625 0.509259 0
4 2 0.515625 0.527778 0.0862551
5 7 0.5 0.537037 0.17251
6 8 0.5 0.537037 0
7 3 0.53125 0.5 0.0862551
8 9 0.546875 0.509259 0.17251
9 10 0.546875 0.509259 0
10 4 0.546875 0.527778 0.0862551
11 11 0.53125 0.537037 0.17251
12 12 0.53125 0.537037 0
13 1 0.5625 0.5 0.0862551
14 5 0.578125 0.509259 0.17251
15 6 0.578125 0.509259 0
16 2 0.578125 0.527778 0.0862551
17 7 0.5625 0.537037 0.17251
18 8 0.5625 0.537037 0
19 3 0.59375 0.5 0.0862551
20 9 0.609375 0.509259 0.17251
21 10 0.609375 0.509259 0
22 4 0.609375 0.527778 0.0862551
23 11 0.59375 0.537037 0.17251
24 12 0.59375 0.537037 0
25 1 0.625 0.5 0.0862551
26 5 0.640625 0.509259 0.17251
27 6 0.640625 0.509259 0
28 2 0.640625 0.527778 0.0862551
29 7 0.625 0.537037 0.17251
30 8 0.625 0.537037 0
31 3 0.65625 0.5 0.0862551
32 9 0.671875 0.509259 0.17251
33 10 0.671875 0.509259 0
34 4 0.671875 0.527778 0.0862551
35 11 0.65625 0.537037 0.17251
36 12 0.65625 0.537037 0
37 1 0.6875 0.5 0.0862551
38 5 0.703125 0.509259 0.17251
39 6 0.703125 0.509259 0
40 2 0.703125 0.527778 0.0862551
41 7 0.6875 0.537037 0.17251
42 8 0.6875 0.537037 0
43 3 0.71875 0.5 0.0862551
44 9 0.734375 0.509259 0.17251
45 10 0.734375 0.509259 0
46 4 0.734375 0.527778 0.0862551
47 11 0.71875 0.537037 0.17251
48 12 0.71875 0.537037 0
49 1 0.75 0.5 0.0862551
50 5 0.765625 0.509259 0.17251
51 6 0.765625 0.509259 0
52 2 0.765625 0.527778 0.0862551
53 7 0.75 0.537037 0.17251
54 8 0.75 0.537037 0
55 3 0.78125 0.5 0.0862551
56 9 0.796875 0.509259 0.17251
57 10 0.796875 0.509259 0
58 4 0.796875 0.527778 0.0862551
59 11 0.78125 0.537037 0.17251
60 12 0.78125 0.537037 0
61 1 0.8125 0.5 0.0862551
62 5 0.828125 0.509259 0.17251
63 6 0.828125 0.509259 0
64 2 0.828125 0.527778 0.0862551
65 7 0.8125 0.537037 0.17251
66 8 0.8125 0.537037 0
67 3 0.84375 0.5 0.0862551
68 9 0.859375 0.509259 0.17251
69 10 0.859375 0.509259 0
70 4 0.859375 0.527778 0.0862551
71 11 0.84375 0.537037 0.17251
72 12 0.84375 0.537037 0
73 1 0.875 0.5 0.0862551
74 5 0.890625 0.509259 0.17251
75 6 0.890625 0.509259 0
76 2 0.890625 0.527778 0.0862551
77 7 0.875 0.537037 0.17251
78 8 0.875 0.537037 0
79 3 0.90625 0.5 0.0862551
80 9 0.921875 0.509259 0.17251
81 10 0.921875 0.509259 0
82 4 0.921875 0.527778 0.0862551
83 11 0.90625 0.537037 0.17251
84 12 0.90625 0.537037 0
85 1 0.9375 0.5 0.0862551
86 5 0.953125 0.509259 0.17251
87 6 0.953125 0.509259 0
88 2 0.953125 0.527778 0.0862551
89 7 0.9375 0.537037 0.17251
90 8 0.9375 0.537037 0
91 3 0.96875 0.5 0.0862551
92 9 0.984375 0.509259 0.17251
93 10 0.984375 0.509259 0
94 4 0.984375 0.527778 0.0862551
95 11 0.96875 0.537037 0.17251
96 12 0.96875 0.537037 0
97 1 0 0.5 0.0862551
98 5 0.015625 0.509259 0.17251
99 6 0.015625 0.509259 0
100 2 0.015625 0.527778 0.0862551
101 7 0 0.537037 0.17251
102 8 0 0.537037 0
103 3 0.03125 0.5 0.0862551
104 9 0.046875 0.509259 0.17251
105 10 0.046875 0.509259 0
106 4 0.046875 0.527778 0.0862551
107 11 0.03125 0.537037 0.17251
108 12 0.03125 0.537037 0
109 1 0.0625 0.5 0.0862551
110 5 0.078125 0.509259 0.17251
111 6 0.078125 0.509259 0
112 2 0.078125 0.527778 0.0862551
113 7 0.0625 0.537037 0.17251
114 8 0.0625 0.537037 0
115 3 0.09375 0.5 0.0862551
116 9 0.109375 0.509259 0.17251
117 10 0.109375 0.509259 0
118 4 0.109375 0.527778 0.0862551
119 11 0.09375 0.537037 0.17251
120 12 0.09375 0.537037 0
121 1 0.125 0.5 0.0862551
122 5 0.140625 0.509259 0.17251
123 6 0.140625 0.509259 0
124 2 0.140625 0.527778 0.0862551
125 7 0.125 0.537037 0.17251
126 8 0.125 0.537037 0
127 3 0.15625 0.5 0.0862551
128 9 0.171875 0.509259 0.17251
129 10 0.171875 0.509259 0
130 4 0.171875 0.527778 0.0862551
131 11 0.15625 0.537037 0.17251
132 12 0.15625 0.537037 0
133 1 0.1875 0.5 0.0862551
134 5 0.203125 0.509259 0.17251
135 6 0.203125 0.509259 0
136 2 0.203125 0.527778 0.0862551
137 7 0.1875 0.537037 0.17251
138 8 0.1875 0.537037 0
139 3 0.21875 0.5 0.0862551
140 9 0.234375 0.509259 0.17251
141 10 0.234375 0.509259 0
142 4 0.234375 0.527778 0.0862551
143 11 0.21875 0.537037 0.17251
144 12 0.21875 0.537037 0
145 1 0.25 0.5 0.0862551
146 5 0.265625 0.509259 0.17251
147 6 0.265625 0.509259 0
148 2 0.265625 0.527778 0.0862551
149 7 0.25 0.537037 0.17251
150 8 0.25 0.537037 0
151 3 0.28125 0.5 0.0862551
152 9 0.296875 0.509259 0.17251
153 10 0.296875 0.509259 0
154 4 0.296875 0.527778 0.0862551
155 11 0.28125 0.537037 0.17251
156 12 0.28125 0.537037 0
157 1 0.3125 0.5 0.0862551
158 5 0.328125 0.509259 0.17251
159 6 0.328125 0.509259 0
160 2 0.328125 0.527778 0.0862551
161 7 0.3125 0.537037 0.17251
162 8 0.3125 0.537037 0
163 3 0.34375 0.5 0.0862551
164 9 0.359375 0.509259 0.17251
165 10 0.359375 0.509259 0
166 4 0.359375 0.527778 0.0862551
167 11 0.34375 0.537037 0.17251
168 12 0.34375 0.537037 0
169 1 0.375 0.5 0.0862551
170 5 0.390625 0.509259 0.17251
171 6 0.390625 0.509259 0
172 2 0.390625 0.527778 0.0862551
173 7 0.375 0.537037 0.17251
174 8 0.375 0.537037 0
175 3 0.40625 0.5 0.0862551
176 9 0.421875 0.509259 0.17251
177 10 0.421875 0.509259 0
178 4 0.421875 0.527778 0.0862551
179 11 0.40625 0.537037 0.17251
180 12 0.40625 0.537037 0
181 1 0.4375 0.5 0.0862551
182 5 0.453125 0.509259 0.17251
183 6 0.453125 0.509259 0
184 2 0.453125 0.527778 0.0862551
185 7 0.4375 0.537037 0.17251
186 8 0.4375 0.537037 0
187 3 0.46875 0.5 0.0862551
188 9 0.484375 0.509259 0.17251
189 10 0.484375 0.509259 0
190 4 0.484375 0.527778 0.0862551
191 11 0.46875 0.537037 0.17251
192 12 0.46875 0.537037 0
193 1 0.5 0.555556 0.0862551
194 5 0.515625 0.564815 0.17251
195 6 0.515625 0.564815 0
196 2 0.515625 0.583333 0.0862551
197 7 0.5 0.592593 0.17251
198 8 0.5 0.592593 0
199 3 0.53125 0.555556 0.0862551
200 9 0.546875 0.564815 0.17251
201 10 0.546875 0.564815 0
202 4 0.546875 0.583333 0.0862551
203 11 0.53125 0.592593 0.17251
204 12 0.53125 0.592593 0
205 1 0.5625 0.555556 0.0862551
206 5 0.578125 0.564815 0.17251
207 6 0.578125 0.564815 0
208 2 0.578125 0.583333 0.0862551
209 7 0.5625 0.592593 0.17251
210 8 0.5625 0.592593 0
211 3 0.59375 0.555556 0.0862551
212 9 0.609375 0.564815 0.17251
213 10 0.609375 0.564815 0
214 4 0.609375 0.583333 0.0862551
215 11 0.59375 0.592593 0.17251
216 12 0.59375 0.592593 0
217 1 0.625 0.555556 0.0862551
218 5 0.640625 0.564815 0.17251
219 6 0.640625 0.564815 0
220 2 0.640625 0.583333 0.0862551
221 7 0.625 0.592593 0.17251
222 8 0.625 0.592593 0
223 3 0.65625 0.555556 0.0862551
224 9 0.671875 0.564815 0.17251
225 10 0.671875 0.564815 0
226 4 0.671875 0.583333 0.0862551
227 11 0.65625 0.592593 0.17251
228 12 0.65625 0.592593 0
229 1 0.6875 0.555556 0.0862551
230 5 0.703125 0.564815 0.17251
231 6 0.703125 0.564815 0
232 2 0.703125 0.583333 0.0862551
233 7 0.6875 0.592593 0.17251
234 8 0.6875 0.592593 0
235 3 0.71875 0.555556 0.0862551
236 9 0.734375 0.564815 0.17251
237 10 0.734375 0.564815 0
238 4 0.734375 0.583333 0.0862551
239 11 0.71875 0.592593 0.17251
240 12 0.71875 0.592593 0
241 1 0.75 0.555556 0.0862551
242 5 0.765625 0.564815 0.17251
243 6 0.765625 0.564815 0
244 2 0.765625 0.583333 0.0862551
245 7 0.75 0.592593 0.17251
246 8 0.75 0.592593 0
247 3 0.78125 0.555556 0.0862551
248 9 0.796875 0.564815 0.17251
249 10 0.796875 0.564815 0
250 4 0.796875 0.583333 0.0862551
251 11 0.78125 0.592593 0.17251
252 12 0.78125 0.592593 0
253 1 0.8125 0.555556 0.0862551
254 5 0.828125 0.564815 0.17251
255 6 0.828125 0.564815 0
256 2 0.828125 0.583333 0.0862551
257 7 0.8125 0.592593 0.17251
258 8 0.8125 0.592593 0
259 3 0.84375 0.555556 0.0862551
260 9 0.859375 0.564815 0.17251
261 10 0.859375 0.564815 0
262 4 0.859375 0.583333 0.0862551
263 11 0.84375 0.592593 0.17251
264 12 0.84375 0.592593 0
265 1 0.875 0.555556 0.0862551
266 5 0.890625 0.564815 0.17251
267 6 0.890625 0.564815 0
268 2 0.890625 0.583333 0.0862551
269 7 0.875 0.592593 0.17251
270 8 0.875 0.592593 0
271 3 0.90625 0.555556 0.0862551
272 9 0.921875 0.564815 0.17251
273 10 0.921875 0.564815 0
274 4 0.921875 0.583333 0.0862551
275 11 0.90625 0.592593 0.17251
276 12 0.90625 0.592593 0
277 1 0.9375 0.555556 0.0862551
278 5 0.953125 0.564815 0.17251
279 6 0.953125 0.564815 0
280 2 0.953125 0.583333 0.0862551
281 7 0.9375 0.592593 0.17251
282 8 0.9375 0.592593 0
283 3 0.96875 0.555556 0.0862551
284 9 0.984375 0.564815 0.17251
285 10 0.984375 0.564815 0
286 4 0.984375 0.583333 0.0862551
287 11 0.96875 0.592593 0.17251
288 12 0.96875 0.592593 0
289 1 0 0.555556 0.0862551
290 5 0.015625 0.564815 0.17251
291 6 0.015625 0.564815 0
292 2 0.015625 0.583333 0.0862551
293 7 0 0.592593 0.17251
294 8 0 0.592593 0
295 3 0.03125 0.555556 0.0862551
296 9 0.046875 0.564815 0.17251
297 10 0.046875 0.564815 0
298 4 0.046875 0.583333 0.0862551
299 11 0.03125 0.592593 0.17251
300 12 0.03125 0.592593 0
301 1 0.0625 0.555556 0.0862551
302 5 0.078125 0.564815 0.17251
303 6 0.078125 0.564815 0
304 2 0.078125 0.583333 0.0862551
305 7 0.0625 0.592593 0.17251
306 8 0.0625 0.592593 0
307 3 0.09375 0.555556 0.0862551
308 9 0.109375 0.564815 0.17251
309 10 0.109375 0.564815 0
310 4 0.109375 0.583333 0.0862551
311 11 0.09375 0.592593 0.17251
312 12 0.09375 0.592593 0
313 1 0.125 0.555556 0.0862551
314 5 0.140625 0.564815 0.17251
315 6 0.140625 0.564815 0
316 2 0.140625 0.583333 0.0862551
317 7 0.125 0.592593 0.17251
318 8 0.125 0.592593 0
319 3 0.15625 0.555556 0.0862551
320 9 0.171875 0.564815 0.17251
321 10 0.171875 0.564815 0
322 4 0.171875 0.583333 0.0862551
323 11 0.15625 0.592593 0.17251
324 12 0.15625 0.592593 0
325 1 0.1875 0.555556 0.0862551
326 5 0.203125 0.564815 0.17251
327 6 0.203125 0.564815 0
328 2 0.203125 0.583333 0.0862551
329 7 0.1875 0.592593 0.17251
330 8 0.1875 0.592593 0
331 3 0.21875 0.555556 0.0862551
332 9 0.234375 0.564815 0.17251
333 10 0.234375 0.564815 0
334 4 0.234375 0.583333 0.0862551
335 11 0.21875 0.592593 0.17251
336 12 0.21875 0.592593 0
337 1 0.25 0.555556 0.0862551
338 5 0.265625 0.564815 0.17251
339 6 0.265625 0.564815 0
340 2 0.265625 0.583333 0.0862551
341 7 0.25 0.592593 0.17251
342 8 0.25 0.592593 0
343 3 0.28125 0.555556 0.0862551
344 9 0.296875 0.564815 0.17251
345 10 0.296875 0.564815 0
346 4 0.296875 0.583333 0.0862551
347 11 0.28125 0.592593 0.17251
348 12 0.28125 0.592593 0
349 1 0.3125 0.555556 0.0862551
350 5 0.328125 0.564815 0.17251
351 6 0.328125 0.564815 0
352 2 0.328125 0.583333 0.0862551
353 7 0.3125 0.592593 0.17251
354 8 0.3125 0.592593 0
355 3 0.34375 0.555556 0.0862551
356 9 0.359375 0.564815 0.17251
357 10 0.359375 0.564815 0
358 4 0.359375 0.583333 0.0862551
359 11 0.34375 0.592593 0.17251
360 12 0.34375 0.592593 0
361 1 0.375 0.555556 0.0862551
362 5 0.390625 0.564815 0.17251
363 6 0.390625 0.564815 0
364 2 0.390625 0.583333 0.0862551
365 7 0.375 0.592593 0.17251
366 8 0.375 0.592593 0
367 3 0.40625 0.555556 0.0862551
368 9 0.421875 0.564815 0.17251
369 10 0.421875 0.564815 0
370 4 0.421875 0.583333 0.0862551
371 11 0.40625 0.592593 0.17251
372 12 0.40625 0.592593 0
373 1 0.4375 0.555556 0.0862551
374 5 0.453125 0.564815 0.17251
375 6 0.453125 0.564815 0
376 2 0.453125 0.583333 0.0862551
377 7 0.4375 0.592593 0.17251
378 8 0.4375 0.592593 0
379 3 0.46875 0.555556 0.0862551
380 9 0.484375 0.564815 0.17251
381 10 0.484375 0.564815 0
382 4 0.484375 0.583333 0.0862551
383 11 0.46875 0.592593 0.17251
384 12 0.46875 0.592593 0
385 1 0.5 0.611111 0.0862551
386 5 0.515625 0.62037 0.17251
387 6 0.515625 0.62037 0
388 2 0.515625 0.638889 0.0862551
389 7 0.5 0.648148 0.17251
390 8 0.5 0.648148 0
391 3 0.53125 0.611111 0.0862551
392 9 0.546875 0.62037 0.17251
393 10 0.546875 0.62037 0
394 4 0.546875 0.638889 0.0862551
395 11 0.53125 0.648148 0.17251
396 12 0.53125 0.648148 0
397 1 0.5625 0.611111 0.0862551
398 5 0.578125 0.62037 0.17251
399 6 0.578125 0.62037 0
400 2 0.578125 0.638889 0.0862551
401 7 0.5625 0.648148 0.17251
402 8 0.5625 0.648148 0
403 3 0.59375 0.611111 0.0862551
404 9 0.609375 0.62037 0.17251
405 10 0.609375 0.62037 0
406 4 0.609375 0.638889 0.0862551
407 11 0.59375 0.648148 0.17251
408 12 0.59375 0.648148 0
409 1 0.625 0.611111 0.0862551
410 5 0.640625 0.62037 0.17251
411 6 0.640625 0.62037 0
412 2 0.640625 0.638889 0.0862551
413 7 0.625 0.648148 0.17251
414 8 0.625 0.648148 0
415 3 0.65625 0.611111 0.0862551
416 9 0.671875 0.62037 0.17251
417 10 0.671875 0.62037 0
418 4 0.671875 0.638889 0.0862551
419 11 0.65625 0.648148 0.17251
420 12 0.65625 0.648148 0
421 1 0.6875 0.611111 0.0862551
422 5 0.703125 0.62037 0.17251
423 6 0.703125 0.62037 0
424 2 0.703125 0.638889 0.0862551
425 7 0.6875 0.648148 0.17251
426 8 0.6875 0.648148 0
427 3 0.71875 0.611111 0.0862551
428 9 0.734375 0.62037 0.17251
429 10 0.734375 0.62037 0
430 4 0.734375 0.638889 0.0862551
431 11 0.71875 0.648148 0.17251
432 12 0.71875 0.648148 0
433 1 0.75 0.611111 0.0862551
434 5 0.765625 0.62037 0.17251
435 6 0.765625 0.62037 0
436 2 0.765625 0.638889 0.0862551
437 7 0.75 0.648148 0.17251
438 8 0.75 0.648148 0
439 3 0.78125 0.611111 0.0862551
440 9 0.796875 0.62037 0.17251
441 10 0.796875 0.62037 0
442 4 0.796875 0.638889 0.0862551
443 11 0.78125 0.648148 0.17251
444 12 0.78125 0.648148 0
445 1 0.8125 0.611111 0.0862551
446 5 0.828125 0.62037 0.17251
447 6 0.828125 0.62037 0
448 2 0.828125 0.638889 0.0862551
449 7 0.8125 0.648148 0.17251
450 8 0.8125 0.648148 0
451 3 0.84375 0.611111 0.0862551
452 9 0.859375 0.62037 0.17251
453 10 0.859375 0.62037 0
454 4 0.859375 0.638889 0.0862551
455 11 0.84375 0.648148 0.17251
456 12 0.84375 0.648148 0
457 1 0.875 0.611111 0.0862551
458 5 0.890625 0.62037 0.17251
459 6 0.890625 0.62037 0
460 2 0.890625 0.638889 0.0862551
461 7 0.875 0.648148 0.17251
462 8 0.875 0.648148 0
463 3 0.90625 0.611111 0.0862551
464 9 0.921875 0.62037 0.17251
465 10 0.921875 0.62037 0
466 4 0.921875 0.638889 0.0862551
467 11 0.90625 0.648148 0.17251
468 12 0.90625 0.648148 0
469 1 0.9375 0.611111 0.0862551
470 5 0.953125 0.62037 0.17251
471 6 0.953125 0.62037 0
472 2 0.953125 0.638889 0.0862551
473 7 0.9375 0.648148 0.17251
474 8 0.9375 0.648148 0
475 3 0.96875 0.611111 0.0862551
476 9 0.984375 0.62037 0.17251
477 10 0.984375 0.62037 0
478 4 0.984375 0.638889 0.0862551
479 11 0.96875 0.648148 0.17251
480 12 0.96875 0.648148 0
481 1 0 0.611111 0.0862551
482 5 0.015625 0.62037 0.17251
483 6 0.015625 0.62037 0
484 2 0.015625 0.638889 0.0862551
485 7 0 0.648148 0.17251
486 8 0 0.648148 0
487 3 0.03125 0.611111 0.0862551
488 9 0.046875 0.62037 0.17251
489 10 0.046875 0.62037 0
490 4 0.046875 0.638889 0.0862551
491 11 0.03125 0.648148 0.17251
492 12 0.03125 0.648148 0
493 1 0.0625 0.611111 0.0862551
494 5 0.078125 0.62037 0.17251
495 6 0.078125 0.62037 0
496 2 0.078125 0.638889 0.0862551
497 7 0.0625 0.648148 0.17251
498 8 0.0625 0.648148 0
499 3 0.09375 0.611111 0.0862551
500 9 0.109375 0.62037 0.17251
501 10 0.109375 0.62037 0
502 4 0.109375 0.638889 0.0862551
503 11 0.09375 0.648148 0.17251
504 12 0.09375 0.648148 0
505 1 0.125 0.611111 0.0862551
506 5 0.140625 0.62037 0.17251
507 6 0.140625 0.62037 0
508 2 0.140625 0.638889 0.0862551
509 7 0.125 0.648148 0.17251
510 8 0.125 0.648148 0
511 3 0.15625 0.611111 0.0862551
512 9 0.171875 0.62037 0.17251
513 10 0.171875 0.62037 0
514 4 0.171875 0.638889 0.0862551
515 11 0.15625 0.648148 0.17251
516 12 0.15625 0.648148 0
517 1 0.1875 0.611111 0.0862551
518 5 0.203125 0.62037 0.17251
519 6 0.203125 0.62037 0
520 2 0.203125 0.638889 0.0862551
521 7 0.1875 0.648148 0.17251
522 8 0.1875 0.648148 0
523 3 0.21875 0.611111 0.0862551
524 9 0.234375 0.62037 0.17251
525 10 0.234375 0.62037 0
526 4 0.234375 0.638889 0.0862551
527 11 0.21875 0.648148 0.17251
528 12 0.21875 0.648148 0
529 1 0.25 0.611111 0.0862551
530 5 0.265625 0.62037 0.17251
531 6 0.265625 0.62037 0
532 2 0.265625 0.638889 0.0862551
533 7 0.25 0.648148 0.17251
534 8 0.25 0.648148 0
535 3 0.28125 0.611111 0.0862551
536 9 0.296875 0.62037 0.17251
537 10 0.296875 0.62037 0
538 4 0.296875 0.638889 0.0862551
539 11 0.28125 0.648148 0.17251
540 12 0.28125 0.648148 0
541 1 0.3125 0.611111 0.0862551
542 5 0.328125 0.62037 0.17251
543 6 0.328125 0.62037 0
544 2 0.328125 0.638889 0.0862551
545 7 0.3125 0.648148 0.17251
546 8 0.3125 0.648148 0
547 3 0.34375 0.611111 0.0862551
548 9 0.359375 0.62037 0.17251
549 10 0.359375 0.62037 0
550 4 0.359375 0.638889 0.0862551
551 11 0.34375 0.648148 0.17251
552 12 0.34375 0.648148 0
553 1 0.375 0.611111 0.0862551
554 5 0.390625 0.62037 0.17251
555 6 0.390625 0.62037 0
556 2 0.390625 0.638889 0.0862551
557 7 0.375 0.648148 0.17251
558 8 0.375 0.648148 0
559 3 0.40625 0.611111 0.0862551
560 9 0.421875 0.62037 0.17251
561 10 0.421875 0.62037 0
562 4 0.421875 0.638889 0.0862551
563 11 0.40625 0.648148 0.17251
564 12 0.40625 0.648148 0
565 1 0.4375 0.611111 0.0862551
566 5 0.453125 0.62037 0.17251
567 6 0.453125 0.62037 0
568 2 0.453125 0.638889 0.0862551
569 7 0.4375 0.648148 0.17251
570 8 0.4375 0.648148 0
571 3 0.46875 0.611111 0.0862551
572 9 0.484375 0.62037 0.17251
573 10 0.484375 0.62037 0
574 4 0.484375 0.638889 0.0862551
575 11 0.46875 0.648148 0.17251
576 12 0.46875 0.648148 0
577 1 0.5 0.666667 0.0862551
578 5 0.515625 0.675926 0.17251
579 6 0.515625 0.675926 0
580 2 0.515625 0.694444 0.0862551
581 7 0.5 0.703704 0.17251
582 8 0.5 0.703704 0
583 3 0.53125 0.666667 0.0862551
584 9 0.546875 0.675926 0.17251
585 10 0.546875 0.675926 0
586 4 0.546875 0.694444 0.0862551
587 11 0.53125 0.703704 0.17251
588 12 0.53125 0.703704 0
589 1 0.5625 0.666667 0.0862551
590 5 0.578125 0.675926 0.17251
591 6 0.578125 0.675926 0
592 2 0.578125 0.694444 0.0862551
593 7 0.5625 0.703704 0.17251
594 8 0.5625 0.703704 0
595 3 0.59375 0.666667 0.0862551
596 9 0.609375 0.675926 0.17251
597 10 0.609375 0.675926 0
598 4 0.609375 0.694444 0.0862551
599 11 0.59375 0.703704 0.17251
600 12 0.59375 0.703704 0
601 1 0.625 0.666667 0.0862551
602 5 0.640625 0.675926 0.17251
603 6 0.640625 0.675926 0
604 2 0.640625 0.694444 0.0862551
605 7 0.625 0.703704 0.17251
606 8 0.625 0.703704 0
607 3 0.65625 0.666667 0.0862551
608 9 0.671875 0.675926 0.17251
609 10 0.671875 0.675926 0
610 4 0.671875 0.694444 0.0862551
611 11 0.65625 0.703704 0.17251
612 12 0.65625 0.703704 0
613 1 0.6875 0.666667 0.0862551
614 5 0.703125 0.675926 0.17251
615 6 0.703125 0.675926 0
616 2 0.703125 0.694444 0.0862551
617 7 0.6875 0.703704 0.17251
618 8 0.6875 0.703704 0
619 3 0.71875 0.666667 0.0862551
620 9 0.734375 0.675926 0.17251
621 10 0.734375 0.675926 0
622 4 0.734375 0.694444 0.0862551
623 11 0.71875 0.703704 0.17251
624 12 0.71875 0.703704 0
625 1 0.75 0.666667 0.0862551
626 5 0.765625 0.675926 0.17251
627 6 0.765625 0.675926 0
628 2 0.765625 0.694444 0.0862551
629 7 0.75 0.703704 0.17251
630 8 0.75 0.703704 0
631 3 0.78125 0.666667 0.0862551
632 9 0.796875 0.675926 0.17251
633 10 0.796875 0.675926 0
634 4 0.796875 0.694444 0.0862551
635 11 0.78125 0.703704 0.17251
636 12 0.78125 0.703704 0
637 1 0.8125 0.666667 0.0862551
638 5 0.828125 0.675926 0.17251
639 6 0.828125 0.675926 0
640 2 0.828125 0.694444 0.0862551
641 7 0.8125 0.703704 0.17251
642 8 0.8125 0.703704 0
643 3 0.84375 0.666667 0.0862551
644 9 0.859375 0.675926 0.17251
645 10 0.859375 0.675926 0
646 4 0.859375 0.694444 0.0862551
647 11 0.84375 0.703704 0.17251
648 12 0.84375 0.703704 0
649 1 0.875 0.666667 0.0862551
650 5 0.890625 0.675926 0.17251
651 6 0.890625 0.675926 0
652 2 0.890625 0.694444 0.0862551
653 7 0.875 0.703704 0.17251
654 8 0.875 0.703704 0
655 3 0.90625 0.666667 0.0862551
656 9 0.921875 0.675926 0.17251
657 10 0.921875 0.675926 0
658 4 0.921875 0.694444 0.0862551
659 11 0.90625 0.703704 0.17251
660 12 0.90625 0.703704 0
661 1 0.9375 0.666667 0.0862551
662 5 0.953125 0.675926 0.17251
663 6 0.953125 0.675926 0
664 2 0.953125 0.694444 0.0862551
665 7 0.9375 0.703704 0.17251
666 8 0.9375 0.703704 0
667 3 0.96875 0.666667 0.0862551
668 9 0.984375 0.675926 0.17251
669 10 0.984375 0.675926 0
670 4 0.984375 0.694444 0.0862551
671 11 0.96875 0.703704 0.17251
672 12 0.96875 0.703704 0
673 1 0 0.666667 0.0862551
674 5 0.015625 0.675926 0.17251
675 6 0.015625 0.675926 0
676 2 0.015625 0.694444 0.0862551
677 7 0 0.703704 0.17251
678 8 0 0.703704 0
679 3 0.03125 0.666667 0.0862551
680 9 0.046875 0.675926 0.17251
681 10 0.046875 0.675926 0
682 4 0.046875 0.694444 0.0862551
683 11 0.03125 0.703704 0.17251
684 12 0.03125 0.703704 0
685 1 0.0625 0.666667 0.0862551
686 5 0.078125 0.675926 0.17251
687 6 0.078125 0.675926 0
688 2 0.078125 0.694444 0.0862551
689 7 0.0625 0.703704 0.17251
690 8 0.0625 0.703704 0
691 3 0.09375 0.666667 0.0862551
692 9 0.109375 0.675926 0.17251
693 10 0.109375 0.675926 0
694 4 0.109375 0.694444 0.0862551
695 11 0.09375 0.703704 0.17251
696 12 0.09375 0.703704 0
697 1 0.125 0.666667 0.0862551
698 5 0.140625 0.675926 0.17251
699 6 0.140625 0.675926 0
700 2 0.140625 0.694444 0.0862551
701 7 0.125 0.703704 0.17251
702 8 0.125 0.703704 0
703 3 0.15625 0.666667 0.0862551
704 9 0.171875 0.675926 0.17251
705 10 0.171875 0.675926 0
706 4 0.171875 0.694444 0.0862551
707 11 0.15625 0.703704 0.17251
708 12 0.15625 0.703704 0
709 1 0.1875 0.666667 0.0862551
710 5 0.203125 0.675926 0.17251
711 6 0.203125 0.675926 0
712 2 0.203125 0.694444 0.0862551
713 7 0.1875 0.703704 0.17251
714 8 0.1875 0.703704 0
715 3 0.21875 0.666667 0.0862551
716 9 0.234375 0.675926 0.17251
717 10 0.234375 0.675926 0
718 4 0.234375 0.694444 0.0862551
719 11 0.21875 0.703704 0.17251
720 12 0.21875 0.703704 0
721 1 0.25 0.666667 0.0862551
722 5 0.265625 0.675926 0.17251
723 6 0.265625 0.675926 0
724 2 0.265625 0.694444 0.0862551
725 7 0.25 0.703704 0.17251
726 8 0.25 0.703704 0
727 3 0.28125 0.666667 0.0862551
728 9 0.296875 0.675926 0.17251
729 10 0.296875 0.675926 0
730 4 0.296875 0.694444 0.0862551
731 11 0.28125 0.703704 0.17251
732 12 0.28125 0.703704 0
733 1 0.3125 0.666667 0.0862551
734 5 0.328125 0.675926 0.17251
735 6 0.328125 0.675926 0
736 2 0.328125 0.694444 0.0862551
737 7 0.3125 0.703704 0.17251
738 8 0.3125 0.703704 0
739 3 0.34375 0.666667 0.0862551
740 9 0.359375 0.675926 0.17251
741 10 0.359375 0.675926 0
742 4 0.359375 0.694444 0.0862551
743 11 0.34375 0.703704 0.17251
744 12 0.34375 0.703704 0
745 1 0.375 0.666667 0.0862551
746 5 0.390625 0.675926 0.17251
747 6 0.390625 0.675926 0
748 2 0.390625 0.694444 0.0862551
749 7 0.375 0.703704 0.17251
750 8 0.375 0.703704 0
751 3 0.40625 0.666667 0.0862551
752 9 0.421875 0.675926 0.17251
753 10 0.421875 0.675926 0
754 4 0.421875 0.694444 0.0862551
755 11 0.40625 0.703704 0.17251
756 12 0.40625 0.703704 0
757 1 0.4375 0.666667 0.0862551
758 5 0.453125 0.675926 0.17251
759 6 0.453125 0.675926 0
760 2 0.453125 0.694444 0.0862551
761 7 0.4375 0.703704 0.17251
762 8 0.4375 0.703704 0
763 3 0.46875 0.666667 0.0862551
764 9 0.484375 0.675926 0.17251
765 10 0.484375 0.675926 0
766 4 0.484375 0.694444 0.0862551
767 11 0.46875 0.703704 0.17251
768 12 0.46875 0.703704 0
769 1 0.5 0.722222 0.0862551
770 5 0.515625 0.731481 0.17251
771 6 0.515625 0.731481 0
772 2 0.515625 0.75 0.0862551
773 7 0.5 0.759259 0.17251
774 8 0.5 0.759259 0
775 3 0.53125 0.722222 0.0862551
776 9 0.546875 0.731481 0.17251
777 10 0.546875 0.731481 0
778 4 0.546875 0.75 0.0862551
779 11 0.53125 0.759259 0.17251
780 12 0.53125 0.759259 0
781 1 0.5625 0.722222 0.0862551
782 5 0.578125 0.731481 0.17251
783 6 0.578125 0.731481 0
784 2 0.578125 0.75 0.0862551
785 7 0.5625 0.759259 0.17251
786 8 0.5625 0.759259 0
787 3 0.59375 0.722222 0.0862551
788 9 0.609375 0.731481 0.17251
789 10 0.609375 0.731481 0
790 4 0.609375 0.75 0.0862551
791 11 0.59375 0.759259 0.17251
792 12 0.59375 0.759259 0
793 1 0.625 0.722222 0.0862551
794 5 0.640625 0.731481 0.17251
795 6 0.640625 0.731481 0
796 2 0.640625 0.75 0.0862551
797 7 0.625 0.759259 0.17251
798 8 0.625 0.759259 0
799 3 0.65625 0.722222 0.0862551
800 9 0.671875 0.731481 0.17251
801 10 0.671875 0.731481 0
802 4 0.671875 0.75 0.0862551
803 11 0.65625 0.759259 0.17251
804 12 0.65625 0.759259 0
805 1 0.6875 0.722222 0.0862551
806 5 0.703125 0.731481 0.17251
807 6 0.703125 0.731481 0
808 2 0.703125 0.75 0.0862551
809 7 0.6875 0.759259 0.17251
810 8 0.6875 0.759259 0
811 3 0.71875 0.722222 0.0862551
812 9 0.734375 0.731481 0.17251
813 10 0.734375 0.731481 0
814 4 0.734375 0.75 0.0862551
815 11 0.71875 0.759259 0.17251
816 12 0.71875 0.759259 0
817 1 0.75 0.722222 0.0862551
818 5 0.765625 0.731481 0.17251
819 6 0.765625 0.731481 0
820 2 0.765625 0.75 0.0862551
821 7 0.75 0.759259 0.17251
822 8 0.75 0.759259 0
823 3 0.78125 0.722222 0.0862551
824 9 0.796875 0.731481 0.17251
825 10 0.796875 0.731481 0
826 4 0.796875 0.75 0.0862551
827 11 0.78125 0.759259 0.17251
828 12 0.78125 0.759259 0
829 1 0.8125 0.722222 0.0862551
830 5 0.828125 0.731481 0.17251
831 6 0.828125 0.731481 0
832 2 0.828125 0.75 0.0862551
833 7 0.8125 0.759259 0.17251
834 8 0.8125 0.759259 0
835 3 0.84375 0.722222 0.0862551
836 9 0.859375 0.731481 0.17251
837 10 0.859375 0.731481 0
838 4 0.859375 0.75 0.0862551
839 11 0.84375 0.759259 0.17251
840 12 0.84375 0.759259 0
841 1 0.875 0.722222 0.0862551
842 5 0.890625 0.731481 0.17251
843 6 0.890625 0.731481 0
844 2 0.890625 0.75 0.0862551
845 7 0.875 0.759259 0.17251
846 8 0.875 0.759259 0
847 3 0.90625 0.722222 0.0862551
848 9 0.921875 0.731481 0.17251
849 10 0.921875 0.731481 0
850 4 0.921875 0.75 0.0862551
851 11 0.90625 0.759259 0.17251
852 12 0.90625 0.759259 0
853 1 0.9375 0.722222 0.0862551
854 5 0.953125 0.731481 0.17251
855 6 0.953125 0.731481 0
856 2 0.953125 0.75 0.0862551
857 7 0.9375 0.759259 0.17251
858 8 0.9375 0.759259 0
859 3 0.96875 0.722222 0.0862551
860 9 0.984375 0.731481 0.17251
861 10 0.984375 0.731481 0
862 4 0.984375 0.75 0.0862551
863 11 0.96875 0.759259 0.17251
864 12 0.96875 0.759259 0
865 1 0 0.722222 0.0862551
866 5 0.015625 0.731481 0.17251
867 6 0.015625 0.731481 0
868 2 0.015625 0.75 0.0862551
869 7 0 0.759259 0.17251
870 8 0 0.759259 0
871 3 0.03125 0.722222 0.0862551
872 9 0.046875 0.731481 0.17251
873 10 0.046875 0.731481 0
874 4 0.046875 0.75 0.0862551
875 11 0.03125 0.759259 0.17251
876 12 0.03125 0.759259 0
877 1 0.0625 0.722222 0.0862551
878 5 0.078125 0.731481 0.17251
879 6 0.078125 0.731481 0
880 2 0.078125 0.75 0.0862551
881 7 0.0625 0.759259 0.17251
882 8 0.0625 0.759259 0
883 3 0.09375 0.722222 0.0862551
884 9 0.109375 0.731481 0.17251
885 10 0.109375 0.731481 0
886 4 0.109375 0.75 0.0862551
887 11 0.09375 0.759259 0.17251
888 12 0.09375 0.759259 0
889 1 0.125 0.722222 0.0862551
890 5 0.140625 0.731481 0.17251
891 6 0.140625 0.731481 0
892 2 0.140625 0.75 0.0862551
893 7 0.125 0.759259 0.17251
894 8 0.125 0.759259 0
895 3 0.15625 0.722222 0.0862551
896 9 0.171875 0.731481 0.17251
897 10 0.171875 0.731481 0
898 4 0.171875 0.75 0.0862551
899 11 0.15625 0.759259 0.17251
900 12 0.15625 0.759259 0
901 1 0.1875 0.722222 0.0862551
902 5 0.203125 0.731481 0.17251
903 6 0.203125 0.731481 0
904 2 0.203125 0.75 0.0862551
905 7 0.1875 0.759259 0.17251
906 8 0.1875 0.759259 0
907 3 0.21875 0.722222 0.0862551
908 9 0.234375 0.731481 0.17251
909 10 0.234375 0.731481 0
910 4 0.234375 0.75 0.0862551
911 11 0.21875 0.759259 0.17251
912 12 0.21875 0.759259 0
913 1 0.25 0.722222 0.0862551
914 5 0.265625 0.731481 0.17251
915 6 0.265625 0.731481 0
916 2 0.265625 0.75 0.0862551
917 7 0.25 0.759259 0.17251
918 8 0.25 0.759259 0
919 3 0.28125 0.722222 0.0862551
920 9 0.296875 0.731481 0.17251
921 10 0.296875 0.731481 0
922 4 0.296875 0.75 0.0862551
923 11 0.28125 0.759259 0.17251
924 12 0.28125 0.759259 0
925 1 0.3125 0.722222 0.0862551
926 5 0.328125 0.731481 0.17251
927 6 0.328125 0.731481 0
928 2 0.328125 0.75 0.0862551
929 7 0.3125 0.759259 0.17251
930 8 0.3125 0.759259 0
931 3 0.34375 0.722222 0.0862551
932 9 0.359375 0.731481 0.17251
933 10 0.359375 0.731481 0
934 4 0.359375 0.75 0.0862551
935 11 0.34375 0.759259 0.17251
936 12 0.34375 0.759259 0
937 1 0.375 0.722222 0.0862551
938 5 0.390625 0.731481 0.17251
939 6 0.390625 0.731481 0
940 2 0.390625 0.75 0.0862551
941 7 0.375 0.759259 0.17251
942 8 0.375 0.759259 0
943 3 0.40625 0.722222 0.0862551
944 9 0.421875 0.731481 0.17251
945 10 0.421875 0.731481 0
946 4 0.421875 0.75 0.0862551
947 11 0.40625 0.759259 0.17251
948 12 0.40625 0.759259 0
949 1 0.4375 0.722222 0.0862551
950 5 0.453125 0.731481 0.17251
951 6 0.453125 0.731481 0
952 2 0.453125 0.75 0.0862551
953 7 0.4375 0.759259 0.17251
954 8 0.4375 0.759259 0
955 3 0.46875 0.722222 0.0862551
956 9 0.484375 0.731481 0.17251
957 10 0.484375 0.731481 0
958 4 0.484375 0.75 0.0862551
959 11 0.46875 0.759259 0.17251
960 12 0.46875 0.759259 0
961 1 0.5 0.777778 0.0862551
962 5 0.515625 0.787037 0.17251
963 6 0.515625 0.787037 0
964 2 0.515625 0.805556 0.0862551
965 7 0.5 0.814815 0.17251
966 8 0.5 0.814815 0
967 3 0.53125 0.777778 0.0862551
968 9 0.546875 0.787037 0.17251
969 10 0.546875 0.787037 0
970 4 0.546875 0.805556 0.0862551
971 11 0.53125 0.814815 0.17251
972 12 0.53125 0.814815 0
973 1 0.5625 0.777778 0.0862551
974 5 0.578125 0.787037 0.17251
975 6 0.578125 0.787037 0
976 2 0.578125 0.805556 0.0862551
977 7 0.5625 0.814815 0.17251
978 8 0.5625 0.814815 0
979 3 0.59375 0.777778 0.0862551
980 9 0.609375 0.787037 0.17251
981 10 0.609375 0.787037 0
982 4 0.609375 0.805556 0.0862551
983 11 0.59375 0.814815 0.17251
984 12 0.59375 0.814815 0
985 1 0.625 0.777778 0.0862551
986 5 0.640625 0.787037 0.17251
987 6 0.640625 0.787037 0
988 2 0.640625 0.805556 0.0862551
989 7 0.625 0.814815 0.17251
990 8 0.625 0.814815 0
991 3 0.65625 0.777778 0.0862551
992 9 0.671875 0.787037 0.17251
993 10 0.671875 0.787037 0
994 4 0.671875 0.805556 0.0862551
995 11 0.65625 0.814815 0.17251
996 12 0.65625 0.814815 0
997 1 0.6875 0.777778 0.0862551
998 5 0.703125 0.787037 0.17251
999 6 0.703125 0.787037 0
1000 2 0.703125 0.805556 0.0862551
1001 7 0.6875 0.814815 0.17251
1002 8 0.6875 0.814815 0
1003 3 0.71875 0.777778 0.0862551
1004 9 0.734375 0.787037 0.17251
1005 10 0.734375 0.787037 0
1006 4 0.734375 0.805556 0.0862551
1007 11 0.71875 0.814815 0.17251
1008 12 0.71875 0.814815 0
1009 1 0.75 0.777778 0.0862551