 # Si8
  
        5760  atoms
           1  atom types
 
      0.000000000000      65.324428440000  xlo xhi
      0.000000000000      65.324428440000  ylo yhi
      0.000000000000      27.218511850000  zlo zhi
 
Masses
 
            1   28.08500000             # Si
 
Atoms # atomic
 
         1    1        4.763239573750       4.763239573750       2.041388388750
         2    1        0.680462796250       3.402313981250       3.402313981250
         3    1        4.763239573750       2.041388388750       4.763239573750
         4    1        0.680462796250       0.680462796250       0.680462796250
         5    1        2.041388388750       4.763239573750       4.763239573750
         6    1        3.402313981250       3.402313981250       0.680462796250
         7    1        2.041388388750       2.041388388750       2.041388388750
         8    1        3.402313981250       0.680462796250       3.402313981250
         9    1       10.206941943750       4.763239573750       2.041388388750
        10    1        6.124165166250       3.402313981250       3.402313981250
        11    1       10.206941943750       2.041388388750       4.763239573750
        12    1        6.124165166250       0.680462796250       0.680462796250
        13    1        7.485090758750       4.763239573750       4.763239573750
        14    1        8.846016351250       3.402313981250       0.680462796250
        15    1        7.485090758750       2.041388388750       2.041388388750
        16    1        8.846016351250       0.680462796250       3.402313981250
        17    1        4.763239573750      10.206941943750       2.041388388750
        18    1        0.680462796250       8.846016351250       3.402313981250
        19    1        4.763239573750       7.485090758750       4.763239573750
        20    1        0.680462796250       6.124165166250       0.680462796250
        21    1        2.041388388750      10.206941943750       4.763239573750
        22    1        3.402313981250       8.846016351250       0.680462796250
        23    1        2.041388388750       7.485090758750       2.041388388750
        24    1        3.402313981250       6.124165166250       3.402313981250
        25    1       10.206941943750      10.206941943750       2.041388388750
        26    1        6.124165166250       8.846016351250       3.402313981250
        27    1       10.206941943750       7.485090758750       4.763239573750
        28    1        6.124165166250       6.124165166250       0.680462796250
        29    1        7.485090758750      10.206941943750       4.763239573750
        30    1        8.846016351250       8.846016351250       0.680462796250
        31    1        7.485090758750       7.485090758750       2.041388388750
        32    1        8.846016351250       6.124165166250       3.402313981250
        33    1       15.650644313750       4.763239573750       2.041388388750
        34    1       11.567867536250       3.402313981250       3.402313981250
        35    1       15.650644313750       2.041388388750       4.763239573750
        36    1       11.567867536250       0.680462796250       0.680462796250
        37    1       12.928793128750       4.763239573750       4.763239573750
        38    1       14.289718721250       3.402313981250       0.680462796250
        39    1       12.928793128750       2.041388388750       2.041388388750
        40    1       14.289718721250       0.680462796250       3.402313981250
        41    1       21.094346683750       4.763239573750       2.041388388750
        42    1       17.011569906250       3.402313981250       3.402313981250
        43    1       21.094346683750       2.041388388750       4.763239573750
        44    1       17.011569906250       0.680462796250       0.680462796250
        45    1       18.372495498750       4.763239573750       4.763239573750
        46    1       19.733421091250       3.402313981250       0.680462796250
        47    1       18.372495498750       2.041388388750       2.041388388750
        48    1       19.733421091250       0.680462796250       3.402313981250
        49    1       15.650644313750      10.206941943750       2.041388388750
        50    1       11.567867536250       8.846016351250       3.402313981250
        51    1       15.650644313750       7.485090758750       4.763239573750
        52    1       11.567867536250       6.124165166250       0.680462796250
        53    1       12.928793128750      10.206941943750       4.763239573750
        54    1       14.289718721250       8.846016351250       0.680462796250
        55    1       12.928793128750       7.485090758750       2.041388388750
        56    1       14.289718721250       6.124165166250       3.402313981250
        57    1       21.094346683750      10.206941943750       2.041388388750
        58    1       17.011569906250       8.846016351250       3.402313981250
        59    1       21.094346683750       7.485090758750       4.763239573750
        60    1       17.011569906250       6.124165166250       0.680462796250
        61    1       18.372495498750      10.206941943750       4.763239573750
        62    1       19.733421091250       8.846016351250       0.680462796250
        63    1       18.372495498750       7.485090758750       2.041388388750
        64    1       19.733421091250       6.124165166250       3.402313981250
        65    1       26.538049053750       4.763239573750       2.041388388750
        66    1       22.455272276250       3.402313981250       3.402313981250
        67    1       26.538049053750       2.041388388750       4.763239573750
        68    1       22.455272276250       0.680462796250       0.680462796250
        69    1       23.816197868750       4.763239573750       4.763239573750
        70    1       25.177123461250       3.402313981250       0.680462796250
        71    1       23.816197868750       2.041388388750       2.041388388750
        72    1       25.177123461250       0.680462796250       3.402313981250
        73    1       31.981751423750       4.763239573750       2.041388388750
        74    1       27.898974646250       3.402313981250       3.402313981250
        75    1       31.981751423750       2.041388388750       4.763239573750
        76    1       27.898974646250       0.680462796250       0.680462796250
        77    1       29.259900238750       4.763239573750       4.763239573750
        78    1       30.620825831250       3.402313981250       0.680462796250
        79    1       29.259900238750       2.041388388750       2.041388388750
        80    1       30.620825831250       0.680462796250       3.402313981250
        81    1       26.538049053750      10.206941943750       2.041388388750
        82    1       22.455272276250       8.846016351250       3.402313981250
        83    1       26.538049053750       7.485090758750       4.763239573750
        84    1       22.455272276250       6.124165166250       0.680462796250
        85    1       23.816197868750      10.206941943750       4.763239573750
        86    1       25.177123461250       8.846016351250       0.680462796250
        87    1       23.816197868750       7.485090758750       2.041388388750
        88    1       25.177123461250       6.124165166250       3.402313981250
        89    1       31.981751423750      10.206941943750       2.041388388750
        90    1       27.898974646250       8.846016351250       3.402313981250
        91    1       31.981751423750       7.485090758750       4.763239573750
        92    1       27.898974646250       6.124165166250       0.680462796250
        93    1       29.259900238750      10.206941943750       4.763239573750
        94    1       30.620825831250       8.846016351250       0.680462796250
        95    1       29.259900238750       7.485090758750       2.041388388750
        96    1       30.620825831250       6.124165166250       3.402313981250
        97    1       37.425453793750       4.763239573750       2.041388388750
        98    1       33.342677016250       3.402313981250       3.402313981250
        99    1       37.425453793750       2.041388388750       4.763239573750
       100    1       33.342677016250       0.680462796250       0.680462796250
       101    1       34.703602608750       4.763239573750       4.763239573750
       102    1       36.064528201250       3.402313981250       0.680462796250
       103    1       34.703602608750       2.041388388750       2.041388388750
       104    1       36.064528201250       0.680462796250       3.402313981250
       105    1       42.869156163750       4.763239573750       2.041388388750
       106    1       38.786379386250       3.402313981250       3.402313981250
       107    1       42.869156163750       2.041388388750       4.763239573750
       108    1       38.786379386250       0.680462796250       0.680462796250
       109    1       40.147304978750       4.763239573750       4.763239573750
       110    1       41.508230571250       3.402313981250       0.680462796250
       111    1       40.147304978750       2.041388388750       2.041388388750
       112    1       41.508230571250       0.680462796250       3.402313981250
       113    1       37.425453793750      10.206941943750       2.041388388750
       114    1       33.342677016250       8.846016351250       3.402313981250
       115    1       37.425453793750       7.485090758750       4.763239573750
       116    1       33.342677016250       6.124165166250       0.680462796250
       117    1       34.703602608750      10.206941943750       4.763239573750
       118    1       36.064528201250       8.846016351250       0.680462796250
       119    1       34.703602608750       7.485090758750       2.041388388750
       120    1       36.064528201250       6.124165166250       3.402313981250
       121    1       42.869156163750      10.206941943750       2.041388388750
       122    1       38.786379386250       8.846016351250       3.402313981250
       123    1       42.869156163750       7.485090758750       4.763239573750
       124    1       38.786379386250       6.124165166250       0.680462796250
       125    1       40.147304978750      10.206941943750       4.763239573750
       126    1       41.508230571250       8.846016351250       0.680462796250
       127    1       40.147304978750       7.485090758750       2.041388388750
       128    1       41.508230571250       6.124165166250       3.402313981250
       129    1       48.312858533750       4.763239573750       2.041388388750
       130    1       44.230081756250       3.402313981250       3.402313981250
       131    1       48.312858533750       2.041388388750       4.763239573750
       132    1       44.230081756250       0.680462796250       0.680462796250
       133    1       45.591007348750       4.763239573750       4.763239573750
       134    1       46.951932941250       3.402313981250       0.680462796250
       135    1       45.591007348750       2.041388388750       2.041388388750
       136    1       46.951932941250       0.680462796250       3.402313981250
       137    1       53.756560903750       4.763239573750       2.041388388750
       138    1       49.673784126250       3.402313981250       3.402313981250
       139    1       53.756560903750       2.041388388750       4.763239573750
       140    1       49.673784126250       0.680462796250       0.680462796250
       141    1       51.034709718750       4.763239573750       4.763239573750
       142    1       52.395635311250       3.402313981250       0.680462796250
       143    1       51.034709718750       2.041388388750       2.041388388750
       144    1       52.395635311250       0.680462796250       3.402313981250
       145    1       48.312858533750      10.206941943750       2.041388388750
       146    1       44.230081756250       8.846016351250       3.402313981250
       147    1       48.312858533750       7.485090758750       4.763239573750
       148    1       44.230081756250       6.124165166250       0.680462796250
       149    1       45.591007348750      10.206941943750       4.763239573750
       150    1       46.951932941250       8.846016351250       0.680462796250
       151    1       45.591007348750       7.485090758750       2.041388388750
       152    1       46.951932941250       6.124165166250       3.402313981250
       153    1       53.756560903750      10.206941943750       2.041388388750
       154    1       49.673784126250       8.846016351250       3.402313981250
       155    1       53.756560903750       7.485090758750       4.763239573750
       156    1       49.673784126250       6.124165166250       0.680462796250
       157    1       51.034709718750      10.206941943750       4.763239573750
       158    1       52.395635311250       8.846016351250       0.680462796250
       159    1       51.034709718750       7.485090758750       2.041388388750
       160    1       52.395635311250       6.124165166250       3.402313981250
       161    1       59.200263273750       4.763239573750       2.041388388750
       162    1       55.117486496250       3.402313981250       3.402313981250
       163    1       59.200263273750       2.041388388750       4.763239573750
       164    1       55.117486496250       0.680462796250       0.680462796250
       165    1       56.478412088750       4.763239573750       4.763239573750
       166    1       57.839337681250       3.402313981250       0.680462796250
       167    1       56.478412088750       2.041388388750       2.041388388750
       168    1       57.839337681250       0.680462796250       3.402313981250
       169    1       64.643965643750       4.763239573750       2.041388388750
       170    1       60.561188866250       3.402313981250       3.402313981250
       171    1       64.643965643750       2.041388388750       4.763239573750
       172    1       60.561188866250       0.680462796250       0.680462796250
       173    1       61.922114458750       4.763239573750       4.763239573750
       174    1       63.283040051250       3.402313981250       0.680462796250
       175    1       61.922114458750       2.041388388750       2.041388388750
       176    1       63.283040051250       0.680462796250       3.402313981250
       177    1       59.200263273750      10.206941943750       2.041388388750
       178    1       55.117486496250       8.846016351250       3.402313981250
       179    1       59.200263273750       7.485090758750       4.763239573750
       180    1       55.117486496250       6.124165166250       0.680462796250
       181    1       56.478412088750      10.206941943750       4.763239573750
       182    1       57.839337681250       8.846016351250       0.680462796250
       183    1       56.478412088750       7.485090758750       2.041388388750
       184    1       57.839337681250       6.124165166250       3.402313981250
       185    1       64.643965643750      10.206941943750       2.041388388750
       186    1       60.561188866250       8.846016351250       3.402313981250
       187    1       64.643965643750       7.485090758750       4.763239573750
       188    1       60.561188866250       6.124165166250       0.680462796250
       189    1       61.922114458750      10.206941943750       4.763239573750
       190    1       63.283040051250       8.846016351250       0.680462796250
       191    1       61.922114458750       7.485090758750       2.041388388750
       192    1       63.283040051250       6.124165166250       3.402313981250
       193    1        4.763239573750      15.650644313750       2.041388388750
       194    1        0.680462796250      14.289718721250       3.402313981250
       195    1        4.763239573750      12.928793128750       4.763239573750
       196    1        0.680462796250      11.567867536250       0.680462796250
       197    1        2.041388388750      15.650644313750       4.763239573750
       198    1        3.402313981250      14.289718721250       0.680462796250
       199    1        2.041388388750      12.928793128750       2.041388388750
       200    1        3.402313981250      11.567867536250       3.402313981250
       201    1       10.206941943750      15.650644313750       2.041388388750
       202    1        6.124165166250      14.289718721250       3.402313981250
       203    1       10.206941943750      12.928793128750       4.763239573750
       204    1        6.124165166250      11.567867536250       0.680462796250
       205    1        7.485090758750      15.650644313750       4.763239573750
       206    1        8.846016351250      14.289718721250       0.680462796250
       207    1        7.485090758750      12.928793128750       2.041388388750
       208    1        8.846016351250      11.567867536250       3.402313981250
       209    1        4.763239573750      21.094346683750       2.041388388750
       210    1        0.680462796250      19.733421091250       3.402313981250
       211    1        4.763239573750      18.372495498750       4.763239573750
       212    1        0.680462796250      17.011569906250       0.680462796250
       213    1        2.041388388750      21.094346683750       4.763239573750
       214    1        3.402313981250      19.733421091250       0.680462796250
       215    1        2.041388388750      18.372495498750       2.041388388750
       216    1        3.402313981250      17.011569906250       3.402313981250
       217    1       10.206941943750      21.094346683750       2.041388388750
       218    1        6.124165166250      19.733421091250       3.402313981250
       219    1       10.206941943750      18.372495498750       4.763239573750
       220    1        6.124165166250      17.011569906250       0.680462796250
       221    1        7.485090758750      21.094346683750       4.763239573750
       222    1        8.846016351250      19.733421091250       0.680462796250
       223    1        7.485090758750      18.372495498750       2.041388388750
       224    1        8.846016351250      17.011569906250       3.402313981250
       225    1       15.650644313750      15.650644313750       2.041388388750
       226    1       11.567867536250      14.289718721250       3.402313981250
       227    1       15.650644313750      12.928793128750       4.763239573750
       228    1       11.567867536250      11.567867536250       0.680462796250
       229    1       12.928793128750      15.650644313750       4.763239573750
       230    1       14.289718721250      14.289718721250       0.680462796250
       231    1       12.928793128750      12.928793128750       2.041388388750
       232    1       14.289718721250      11.567867536250       3.402313981250
       233    1       21.094346683750      15.650644313750       2.041388388750
       234    1       17.011569906250      14.289718721250       3.402313981250
       235    1       21.094346683750      12.928793128750       4.763239573750
       236    1       17.011569906250      11.567867536250       0.680462796250
       237    1       18.372495498750      15.650644313750       4.763239573750
       238    1       19.733421091250      14.289718721250       0.680462796250
       239    1       18.372495498750      12.928793128750       2.041388388750
       240    1       19.733421091250      11.567867536250       3.402313981250
       241    1       15.650644313750      21.094346683750       2.041388388750
       242    1       11.567867536250      19.733421091250       3.402313981250
       243    1       15.650644313750      18.372495498750       4.763239573750
       244    1       11.567867536250      17.011569906250       0.680462796250
       245    1       12.928793128750      21.094346683750       4.763239573750
       246    1       14.289718721250      19.733421091250       0.680462796250
       247    1       12.928793128750      18.372495498750       2.041388388750
       248    1       14.289718721250      17.011569906250       3.402313981250
       249    1       21.094346683750      21.094346683750       2.041388388750
       250    1       17.011569906250      19.733421091250       3.402313981250
       251    1       21.094346683750      18.372495498750       4.763239573750
       252    1       17.011569906250      17.011569906250       0.680462796250
       253    1       18.372495498750      21.094346683750       4.763239573750
       254    1       19.733421091250      19.733421091250       0.680462796250
       255    1       18.372495498750      18.372495498750       2.041388388750
       256    1       19.733421091250      17.011569906250       3.402313981250
       257    1       26.538049053750      15.650644313750       2.041388388750
       258    1       22.455272276250      14.289718721250       3.402313981250
       259    1       26.538049053750      12.928793128750       4.763239573750
       260    1       22.455272276250      11.567867536250       0.680462796250
       261    1       23.816197868750      15.650644313750       4.763239573750
       262    1       25.177123461250      14.289718721250       0.680462796250
       263    1       23.816197868750      12.928793128750       2.041388388750
       264    1       25.177123461250      11.567867536250       3.402313981250
       265    1       31.981751423750      15.650644313750       2.041388388750
       266    1       27.898974646250      14.289718721250       3.402313981250
       267    1       31.981751423750      12.928793128750       4.763239573750
       268    1       27.898974646250      11.567867536250       0.680462796250
       269    1       29.259900238750      15.650644313750       4.763239573750
       270    1       30.620825831250      14.289718721250       0.680462796250
       271    1       29.259900238750      12.928793128750       2.041388388750
       272    1       30.620825831250      11.567867536250       3.402313981250
       273    1       26.538049053750      21.094346683750       2.041388388750
       274    1       22.455272276250      19.733421091250       3.402313981250
       275    1       26.538049053750      18.372495498750       4.763239573750
       276    1       22.455272276250      17.011569906250       0.680462796250
       277    1       23.816197868750      21.094346683750       4.763239573750
       278    1       25.177123461250      19.733421091250       0.680462796250
       279    1       23.816197868750      18.372495498750       2.041388388750
       280    1       25.177123461250      17.011569906250       3.402313981250
       281    1       31.981751423750      21.094346683750       2.041388388750
       282    1       27.898974646250      19.733421091250       3.402313981250
       283    1       31.981751423750      18.372495498750       4.763239573750
       284    1       27.898974646250      17.011569906250       0.680462796250
       285    1       29.259900238750      21.094346683750       4.763239573750
       286    1       30.620825831250      19.733421091250       0.680462796250
       287    1       29.259900238750      18.372495498750       2.041388388750
       288    1       30.620825831250      17.011569906250       3.402313981250
       289    1       37.425453793750      15.650644313750       2.041388388750
       290    1       33.342677016250      14.289718721250       3.402313981250
       291    1       37.425453793750      12.928793128750       4.763239573750
       292    1       33.342677016250      11.567867536250       0.680462796250
       293    1       34.703602608750      15.650644313750       4.763239573750
       294    1       36.064528201250      14.289718721250       0.680462796250
       295    1       34.703602608750      12.928793128750       2.041388388750
       296    1       36.064528201250      11.567867536250       3.402313981250
       297    1       42.869156163750      15.650644313750       2.041388388750
       298    1       38.786379386250      14.289718721250       3.402313981250
       299    1       42.869156163750      12.928793128750       4.763239573750
       300    1       38.786379386250      11.567867536250       0.680462796250
       301    1       40.147304978750      15.650644313750       4.763239573750
       302    1       41.508230571250      14.289718721250       0.680462796250
       303    1       40.147304978750      12.928793128750       2.041388388750
       304    1       41.508230571250      11.567867536250       3.402313981250
       305    1       37.425453793750      21.094346683750       2.041388388750
       306    1       33.342677016250      19.733421091250       3.402313981250
       307    1       37.425453793750      18.372495498750       4.763239573750
       308    1       33.342677016250      17.011569906250       0.680462796250
       309    1       34.703602608750      21.094346683750       4.763239573750
       310    1       36.064528201250      19.733421091250       0.680462796250
       311    1       34.703602608750      18.372495498750       2.041388388750
       312    1       36.064528201250      17.011569906250       3.402313981250
       313    1       42.869156163750      21.094346683750       2.041388388750
       314    1       38.786379386250      19.733421091250       3.402313981250
       315    1       42.869156163750      18.372495498750       4.763239573750
       316    1       38.786379386250      17.011569906250       0.680462796250
       317    1       40.147304978750      21.094346683750       4.763239573750
       318    1       41.508230571250      19.733421091250       0.680462796250
       319    1       40.147304978750      18.372495498750       2.041388388750
       320    1       41.508230571250      17.011569906250       3.402313981250
       321    1       48.312858533750      15.650644313750       2.041388388750
       322    1       44.230081756250      14.289718721250       3.402313981250
       323    1       48.312858533750      12.928793128750       4.763239573750
       324    1       44.230081756250      11.567867536250       0.680462796250
       325    1       45.591007348750      15.650644313750       4.763239573750
       326    1       46.951932941250      14.289718721250       0.680462796250
       327    1       45.591007348750      12.928793128750       2.041388388750
       328    1       46.951932941250      11.567867536250       3.402313981250
       329    1       53.756560903750      15.650644313750       2.041388388750
       330    1       49.673784126250      14.289718721250       3.402313981250
       331    1       53.756560903750      12.928793128750       4.763239573750
       332    1       49.673784126250      11.567867536250       0.680462796250
       333    1       51.034709718750      15.650644313750       4.763239573750
       334    1       52.395635311250      14.289718721250       0.680462796250
       335    1       51.034709718750      12.928793128750       2.041388388750
       336    1       52.395635311250      11.567867536250       3.402313981250
       337    1       48.312858533750      21.094346683750       2.041388388750
       338    1       44.230081756250      19.733421091250       3.402313981250
       339    1       48.312858533750      18.372495498750       4.763239573750
       340    1       44.230081756250      17.011569906250       0.680462796250
       341    1       45.591007348750      21.094346683750       4.763239573750
       342    1       46.951932941250      19.733421091250       0.680462796250
       343    1       45.591007348750      18.372495498750       2.041388388750
       344    1       46.951932941250      17.011569906250       3.402313981250
       345    1       53.756560903750      21.094346683750       2.041388388750
       346    1       49.673784126250      19.733421091250       3.402313981250
       347    1       53.756560903750      18.372495498750       4.763239573750
       348    1       49.673784126250      17.011569906250       0.680462796250
       349    1       51.034709718750      21.094346683750       4.763239573750
       350    1       52.395635311250      19.733421091250       0.680462796250
       351    1       51.034709718750      18.372495498750       2.041388388750
       352    1       52.395635311250      17.011569906250       3.402313981250
       353    1       59.200263273750      15.650644313750       2.041388388750
       354    1       55.117486496250      14.289718721250       3.402313981250
       355    1       59.200263273750      12.928793128750       4.763239573750
       356    1       55.117486496250      11.567867536250       0.680462796250
       357    1       56.478412088750      15.650644313750       4.763239573750
       358    1       57.839337681250      14.289718721250       0.680462796250
       359    1       56.478412088750      12.928793128750       2.041388388750
       360    1       57.839337681250      11.567867536250       3.402313981250
       361    1       64.643965643750      15.650644313750       2.041388388750
       362    1       60.561188866250      14.289718721250       3.402313981250
       363    1       64.643965643750      12.928793128750       4.763239573750
       364    1       60.561188866250      11.567867536250       0.680462796250
       365    1       61.922114458750      15.650644313750       4.763239573750
       366    1       63.283040051250      14.289718721250       0.680462796250
       367    1       61.922114458750      12.928793128750       2.041388388750
       368    1       63.283040051250      11.567867536250       3.402313981250
       369    1       59.200263273750      21.094346683750       2.041388388750
       370    1       55.117486496250      19.733421091250       3.402313981250
       371    1       59.200263273750      18.372495498750       4.763239573750